 Entering Gaussian System, Link 0=g16
 Input=irc_sn2_B3LYP_6-31+Gdp_maxpoints100_stepsize5.com
 Output=irc_sn2_B3LYP_6-31+Gdp_maxpoints100_stepsize5.log
 Initial command:
 /afs/cad/linux/gaussian/g16_C.01/SSE4/g16/l1.exe "/home/b/buttard/SN2-E2/irc/Gau-20285.inp" -scrdir="/home/b/buttard/SN2-E2/irc/"
 Entering Link 1 = /afs/cad/linux/gaussian/g16_C.01/SSE4/g16/l1.exe PID=     20286.
  
 Copyright (c) 1988-2019, Gaussian, Inc.  All Rights Reserved.
  
 This is part of the Gaussian(R) 16 program.  It is based on
 the Gaussian(R) 09 system (copyright 2009, Gaussian, Inc.),
 the Gaussian(R) 03 system (copyright 2003, Gaussian, Inc.),
 the Gaussian(R) 98 system (copyright 1998, Gaussian, Inc.),
 the Gaussian(R) 94 system (copyright 1995, Gaussian, Inc.),
 the Gaussian 92(TM) system (copyright 1992, Gaussian, Inc.),
 the Gaussian 90(TM) system (copyright 1990, Gaussian, Inc.),
 the Gaussian 88(TM) system (copyright 1988, Gaussian, Inc.),
 the Gaussian 86(TM) system (copyright 1986, Carnegie Mellon
 University), and the Gaussian 82(TM) system (copyright 1983,
 Carnegie Mellon University). Gaussian is a federally registered
 trademark of Gaussian, Inc.
  
 This software contains proprietary and confidential information,
 including trade secrets, belonging to Gaussian, Inc.
  
 This software is provided under written license and may be
 used, copied, transmitted, or stored only in accord with that
 written license.
  
 The following legend is applicable only to US Government
 contracts under FAR:
  
                    RESTRICTED RIGHTS LEGEND
  
 Use, reproduction and disclosure by the US Government is
 subject to restrictions as set forth in subparagraphs (a)
 and (c) of the Commercial Computer Software - Restricted
 Rights clause in FAR 52.227-19.
  
 Gaussian, Inc.
 340 Quinnipiac St., Bldg. 40, Wallingford CT 06492
  
  
 ---------------------------------------------------------------
 Warning -- This program may not be used in any manner that
 competes with the business of Gaussian, Inc. or will provide
 assistance to any competitor of Gaussian, Inc.  The licensee
 of this program is prohibited from giving any competitor of
 Gaussian, Inc. access to this program.  By using this program,
 the user acknowledges that Gaussian, Inc. is engaged in the
 business of creating and licensing software in the field of
 computational chemistry and represents and warrants to the
 licensee that it is not a competitor of Gaussian, Inc. and that
 it will not use this program in any manner prohibited above.
 ---------------------------------------------------------------
  

 Cite this work as:
 Gaussian 16, Revision C.01,
 M. J. Frisch, G. W. Trucks, H. B. Schlegel, G. E. Scuseria, 
 M. A. Robb, J. R. Cheeseman, G. Scalmani, V. Barone, 
 G. A. Petersson, H. Nakatsuji, X. Li, M. Caricato, A. V. Marenich, 
 J. Bloino, B. G. Janesko, R. Gomperts, B. Mennucci, H. P. Hratchian, 
 J. V. Ortiz, A. F. Izmaylov, J. L. Sonnenberg, D. Williams-Young, 
 F. Ding, F. Lipparini, F. Egidi, J. Goings, B. Peng, A. Petrone, 
 T. Henderson, D. Ranasinghe, V. G. Zakrzewski, J. Gao, N. Rega, 
 G. Zheng, W. Liang, M. Hada, M. Ehara, K. Toyota, R. Fukuda, 
 J. Hasegawa, M. Ishida, T. Nakajima, Y. Honda, O. Kitao, H. Nakai, 
 T. Vreven, K. Throssell, J. A. Montgomery, Jr., J. E. Peralta, 
 F. Ogliaro, M. J. Bearpark, J. J. Heyd, E. N. Brothers, K. N. Kudin, 
 V. N. Staroverov, T. A. Keith, R. Kobayashi, J. Normand, 
 K. Raghavachari, A. P. Rendell, J. C. Burant, S. S. Iyengar, 
 J. Tomasi, M. Cossi, J. M. Millam, M. Klene, C. Adamo, R. Cammi, 
 J. W. Ochterski, R. L. Martin, K. Morokuma, O. Farkas, 
 J. B. Foresman, and D. J. Fox, Gaussian, Inc., Wallingford CT, 2019.
 
 ******************************************
 Gaussian 16:  ES64L-G16RevC.01  3-Jul-2019
                19-Nov-2020 
 ******************************************
 %mem=2GB
 %nprocshared=8
 Will use up to    8 processors via shared memory.
 %nosave
 -------------------------------------------------------------------
 #p irc=(calcfc,recalc=1,maxpoints=100,stepsize=5) b3lyp/6-31+g(d,p)
 -------------------------------------------------------------------
 1/10=4,18=10,26=3,38=1,39=5,42=100,44=3,71=1,172=1/1,23;
 2/12=2,17=6,18=5,29=1,40=1/2;
 3/5=1,6=6,7=111,11=2,25=1,30=1,71=2,74=-5,140=1/1,2,3;
 4//1;
 5/5=2,38=5/2;
 8/6=4,10=90,11=11/1;
 11/6=1,8=1,9=11,15=111,16=1/1,2,10;
 10/6=1,13=1/2;
 6/7=2,8=2,9=2,10=2,28=1/1;
 7/10=1,25=1/1,2,3,16;
 1/10=4,18=10,26=3,39=5,42=100,44=3,71=1/23(2);
 2/29=1/2;
 99/5=20/99;
 2/29=1/2;
 3/5=1,6=6,7=111,11=2,25=1,30=1,71=2,74=-5,140=1/1,2,3;
 4/5=5,16=3,69=1/1;
 5/5=2,38=5/2;
 8/6=4,10=90,11=11/1;
 11/6=1,8=1,9=11,15=111,16=1/1,2,10;
 10/6=1,13=1/2;
 7/10=1,25=1/1,2,3,16;
 1/18=10,26=3,39=5,42=100,44=3,71=1/23(-8);
 2/29=1/2;
 6/7=2,8=2,9=2,10=2,19=2,28=1/1;
 99/5=20,9=1/99;
 Leave Link    1 at Thu Nov 19 09:12:28 2020, MaxMem=   268435456 cpu:               0.6 elap:               0.1
 (Enter /afs/cad/linux/gaussian/g16_C.01/SSE4/g16/l101.exe)
 -------
 IRC sn2
 -------
 Symbolic Z-matrix:
 Charge = -1 Multiplicity = 1
 C                     0.35921  -0.18287   0. 
 Cl                   -1.8359   -0.24954  0. 
 H                     0.46596  -0.74077  -0.91351 
 H                     0.46596  -0.74077   0.91352 
 F                     2.47775  -0.65576  0. 
 C                     0.62107   1.29487   0. 
 H                     0.19386   1.77257   0.88731 
 H                     1.70911   1.40843   0.00002 
 H                     0.19389   1.77256  -0.88733 
 
 ITRead=  0  0  0  0  0  0  0  0  0
 MicOpt= -1 -1 -1 -1 -1 -1 -1 -1 -1
 NAtoms=      9 NQM=        9 NQMF=       0 NMMI=      0 NMMIF=      0
                NMic=       0 NMicF=      0.
                    Isotopes and Nuclear Properties:
 (Nuclear quadrupole moments (NQMom) in fm**2, nuclear magnetic moments (NMagM)
  in nuclear magnetons)

  Atom         1           2           3           4           5           6           7           8           9
 IAtWgt=          12          35           1           1          19          12           1           1           1
 AtmWgt=  12.0000000  34.9688527   1.0078250   1.0078250  18.9984033  12.0000000   1.0078250   1.0078250   1.0078250
 NucSpn=           0           3           1           1           1           0           1           1           1
 AtZEff=  -0.0000000  -0.0000000  -0.0000000  -0.0000000  -0.0000000  -0.0000000  -0.0000000  -0.0000000  -0.0000000
 NQMom=    0.0000000  -8.1650000   0.0000000   0.0000000   0.0000000   0.0000000   0.0000000   0.0000000   0.0000000
 NMagM=    0.0000000   0.8218740   2.7928460   2.7928460   2.6288670   0.0000000   2.7928460   2.7928460   2.7928460
 AtZNuc=   6.0000000  17.0000000   1.0000000   1.0000000   9.0000000   6.0000000   1.0000000   1.0000000   1.0000000
 Leave Link  101 at Thu Nov 19 09:12:29 2020, MaxMem=   268435456 cpu:               0.8 elap:               0.1
 (Enter /afs/cad/linux/gaussian/g16_C.01/SSE4/g16/l123.exe)
 IRC-IRC-IRC-IRC-IRC-IRC-IRC-IRC-IRC-IRC-IRC-IRC-IRC-IRC-IRC-IRC-IRC-IRC
 ------------------------------------------------------------------------
 INPUT DATA FOR L123
 ------------------------------------------------------------------------
 GENERAL PARAMETERS:
 Follow reaction path in both directions.
 Maximum points per path      = 100
 Step size                    =   0.050 bohr
 Integration scheme           = HPC                                 
    Redo corrector integration= Yes                                 
    DWI Weight Power          =  2
    DWI will use Hessian update vectors when possible.
    Max correction cycles     =  20
 Initial Hessian              = CalcFC
 Hessian evaluation           = Analytic at all predictor steps
                              = Update at all corrector steps
 Hessian updating method      = Bofill                              
 ------------------------------------------------------------------------
 IRC-IRC-IRC-IRC-IRC-IRC-IRC-IRC-IRC-IRC-IRC-IRC-IRC-IRC-IRC-IRC-IRC-IRC
 Leave Link  123 at Thu Nov 19 09:12:29 2020, MaxMem=   268435456 cpu:               0.2 elap:               0.2
 (Enter /afs/cad/linux/gaussian/g16_C.01/SSE4/g16/l202.exe)
                          Input orientation:                          
 ---------------------------------------------------------------------
 Center     Atomic      Atomic             Coordinates (Angstroms)
 Number     Number       Type             X           Y           Z
 ---------------------------------------------------------------------
      1          6           0        0.359212   -0.182874    0.000004
      2         17           0       -1.835896   -0.249537   -0.000001
      3          1           0        0.465960   -0.740774   -0.913509
      4          1           0        0.465958   -0.740768    0.913521
      5          9           0        2.477752   -0.655761   -0.000002
      6          6           0        0.621070    1.294870    0.000000
      7          1           0        0.193857    1.772569    0.887308
      8          1           0        1.709110    1.408428    0.000017
      9          1           0        0.193890    1.772560   -0.887329
 ---------------------------------------------------------------------
                    Distance matrix (angstroms):
                    1          2          3          4          5
     1  C    0.000000
     2  Cl   2.196120   0.000000
     3  H    1.075711   2.524748   0.000000
     4  H    1.075711   2.524750   1.827030   0.000000
     5  F    2.170676   4.332733   2.211115   2.211123   0.000000
     6  C    1.500765   2.902047   2.236606   2.236605   2.692996
     7  H    2.153696   2.999354   3.103848   2.528159   3.449679
     8  H    2.086736   3.913555   2.645566   2.645555   2.202654
     9  H    2.153698   2.999376   2.528153   3.103852   3.449655
                    6          7          8          9
     6  C    0.000000
     7  H    1.094542   0.000000
     8  H    1.093950   1.793286   0.000000
     9  H    1.094542   1.774637   1.793284   0.000000
 Symmetry turned off by external request.
 Stoichiometry    C2H5ClF(1-)
 Framework group  C1[X(C2H5ClF)]
 Deg. of freedom    21
 Full point group                 C1      NOp   1
 Rotational constants (GHZ):          11.6762428           2.0427210           1.7785683
 Leave Link  202 at Thu Nov 19 09:12:29 2020, MaxMem=   268435456 cpu:               0.1 elap:               0.0
 (Enter /afs/cad/linux/gaussian/g16_C.01/SSE4/g16/l301.exe)
 Standard basis: 6-31+G(d,p) (6D, 7F)
 Ernie: Thresh=  0.10000D-02 Tol=  0.10000D-05 Strict=F.
   105 basis functions,   187 primitive gaussians,   105 cartesian basis functions
    22 alpha electrons       22 beta electrons
       nuclear repulsion energy       147.2419412133 Hartrees.
 IExCor=  402 DFT=T Ex+Corr=B3LYP ExCW=0 ScaHFX=  0.200000
 ScaDFX=  0.800000  0.720000  1.000000  0.810000 ScalE2=  1.000000  1.000000
 IRadAn=      5 IRanWt=     -1 IRanGd=            0 ICorTp=0 IEmpDi=  4
 NAtoms=    9 NActive=    9 NUniq=    9 SFac= 1.00D+00 NAtFMM=   60 NAOKFM=F Big=F
 Integral buffers will be    131072 words long.
 Raffenetti 2 integral format.
 Two-electron integral symmetry is turned off.
 Leave Link  301 at Thu Nov 19 09:12:29 2020, MaxMem=   268435456 cpu:               0.5 elap:               0.1
 (Enter /afs/cad/linux/gaussian/g16_C.01/SSE4/g16/l302.exe)
 NPDir=0 NMtPBC=     1 NCelOv=     1 NCel=       1 NClECP=     1 NCelD=      1
         NCelK=      1 NCelE2=     1 NClLst=     1 CellRange=     0.0.
 One-electron integrals computed using PRISM.
 NBasis=   105 RedAO= T EigKep=  2.38D-04  NBF=   105
 NBsUse=   105 1.00D-06 EigRej= -1.00D+00 NBFU=   105
 Precomputing XC quadrature grid using
 IXCGrd= 4 IRadAn=           5 IRanWt=          -1 IRanGd=           0 AccXCQ= 0.00D+00.
 Generated NRdTot=       0 NPtTot=           0 NUsed=           0 NTot=          32
 NSgBfM=   105   105   105   105   105 MxSgAt=     9 MxSgA2=     9.
 Leave Link  302 at Thu Nov 19 09:12:30 2020, MaxMem=   268435456 cpu:               1.6 elap:               0.2
 (Enter /afs/cad/linux/gaussian/g16_C.01/SSE4/g16/l303.exe)
 DipDrv:  MaxL=1.
 Leave Link  303 at Thu Nov 19 09:12:30 2020, MaxMem=   268435456 cpu:               0.2 elap:               0.1
 (Enter /afs/cad/linux/gaussian/g16_C.01/SSE4/g16/l401.exe)
 ExpMin= 4.38D-02 ExpMax= 2.52D+04 ExpMxC= 3.78D+03 IAcc=3 IRadAn=         5 AccDes= 0.00D+00
 Harris functional with IExCor=  402 and IRadAn=       5 diagonalized for initial guess.
 HarFok:  IExCor=  402 AccDes= 0.00D+00 IRadAn=         5 IDoV= 1 UseB2=F ITyADJ=14
 ICtDFT=  3500011 ScaDFX=  1.000000  1.000000  1.000000  1.000000
 FoFCou: FMM=F IPFlag=           0 FMFlag=      100000 FMFlg1=           0
         NFxFlg=           0 DoJE=T BraDBF=F KetDBF=T FulRan=T
         wScrn=  0.000000 ICntrl=       500 IOpCl=  0 I1Cent=   200000004 NGrid=           0
         NMat0=    1 NMatS0=      1 NMatT0=    0 NMatD0=    1 NMtDS0=    0 NMtDT0=    0
 Symmetry not used in FoFCou.
 Harris En= -639.426879261503    
 JPrj=0 DoOrth=F DoCkMO=F.
 Leave Link  401 at Thu Nov 19 09:12:30 2020, MaxMem=   268435456 cpu:               4.8 elap:               0.6
 (Enter /afs/cad/linux/gaussian/g16_C.01/SSE4/g16/l502.exe)
 Keep R1 ints in memory in canonical form, NReq=22933992.
 FoFCou: FMM=F IPFlag=           0 FMFlag=           0 FMFlg1=           0
         NFxFlg=           0 DoJE=F BraDBF=F KetDBF=F FulRan=T
         wScrn=  0.000000 ICntrl=       600 IOpCl=  0 I1Cent=           0 NGrid=           0
         NMat0=    1 NMatS0=   5565 NMatT0=    0 NMatD0=    1 NMtDS0=    0 NMtDT0=    0
 Symmetry not used in FoFCou.
 Two-electron integral symmetry not used.
 Closed shell SCF:
 Using DIIS extrapolation, IDIIS=  1040.
 NGot=   268435456 LenX=   252923994 LenY=   252912528
 Requested convergence on RMS density matrix=1.00D-08 within 128 cycles.
 Requested convergence on MAX density matrix=1.00D-06.
 Requested convergence on             energy=1.00D-06.
 No special actions if energy rises.

 Cycle   1  Pass 1  IDiag  1:
 E= -639.108912728697    
 DIIS: error= 4.31D-02 at cycle   1 NSaved=   1.
 NSaved= 1 IEnMin= 1 EnMin= -639.108912728697     IErMin= 1 ErrMin= 4.31D-02
 ErrMax= 4.31D-02  0.00D+00 EMaxC= 1.00D-01 BMatC= 2.16D-01 BMatP= 2.16D-01
 IDIUse=3 WtCom= 5.69D-01 WtEn= 4.31D-01
 Coeff-Com:  0.100D+01
 Coeff-En:   0.100D+01
 Coeff:      0.100D+01
 Gap=     0.372 Goal=   None    Shift=    0.000
 GapD=    0.372 DampG=1.000 DampE=0.500 DampFc=0.5000 IDamp=-1.
 Damping current iteration by 5.00D-01
 RMSDP=1.60D+00 MaxDP=7.53D+01              OVMax= 9.43D-01

 Cycle   2  Pass 1  IDiag  1:
 E= -637.201335306687     Delta-E=        1.907577422010 Rises=F Damp=T
 DIIS: error= 1.01D-01 at cycle   2 NSaved=   2.
 NSaved= 2 IEnMin= 1 EnMin= -639.108912728697     IErMin= 1 ErrMin= 4.31D-02
 ErrMax= 1.01D-01  0.00D+00 EMaxC= 1.00D-01 BMatC= 6.84D-01 BMatP= 2.16D-01
 IDIUse=2 WtCom= 0.00D+00 WtEn= 1.00D+00
 Coeff-En:   0.918D+00 0.823D-01
 Coeff:      0.918D+00 0.823D-01
 Gap=    -0.067 Goal=   None    Shift=    0.000
 RMSDP=7.98D-01 MaxDP=3.75D+01 DE= 1.91D+00 OVMax= 1.00D+00

 Cycle   3  Pass 1  IDiag  1:
 E= -638.973160165142     Delta-E=       -1.771824858456 Rises=F Damp=F
 DIIS: error= 7.28D-02 at cycle   3 NSaved=   3.
 NSaved= 3 IEnMin= 1 EnMin= -639.108912728697     IErMin= 1 ErrMin= 4.31D-02
 ErrMax= 7.28D-02  0.00D+00 EMaxC= 1.00D-01 BMatC= 4.23D-01 BMatP= 2.16D-01
 IDIUse=2 WtCom= 0.00D+00 WtEn= 1.00D+00
 Coeff-En:   0.599D+00 0.000D+00 0.401D+00
 Coeff:      0.599D+00 0.000D+00 0.401D+00
 Gap=     0.223 Goal=   None    Shift=    0.000
 RMSDP=7.25D-03 MaxDP=1.74D-01 DE=-1.77D+00 OVMax= 2.04D-01

 Cycle   4  Pass 1  IDiag  1:
 E= -639.316113183123     Delta-E=       -0.342953017981 Rises=F Damp=F
 DIIS: error= 7.04D-03 at cycle   4 NSaved=   4.
 NSaved= 4 IEnMin= 4 EnMin= -639.316113183123     IErMin= 4 ErrMin= 7.04D-03
 ErrMax= 7.04D-03  0.00D+00 EMaxC= 1.00D-01 BMatC= 4.15D-03 BMatP= 2.16D-01
 IDIUse=3 WtCom= 9.30D-01 WtEn= 7.04D-02
 Coeff-Com:  0.144D+00 0.360D-01 0.511D-01 0.769D+00
 Coeff-En:   0.000D+00 0.000D+00 0.000D+00 0.100D+01
 Coeff:      0.134D+00 0.335D-01 0.475D-01 0.785D+00
 Gap=     0.220 Goal=   None    Shift=    0.000
 RMSDP=1.31D-03 MaxDP=2.55D-02 DE=-3.43D-01 OVMax= 3.52D-02

 Cycle   5  Pass 1  IDiag  1:
 E= -639.318145948714     Delta-E=       -0.002032765591 Rises=F Damp=F
 DIIS: error= 3.75D-03 at cycle   5 NSaved=   5.
 NSaved= 5 IEnMin= 5 EnMin= -639.318145948714     IErMin= 5 ErrMin= 3.75D-03
 ErrMax= 3.75D-03  0.00D+00 EMaxC= 1.00D-01 BMatC= 1.94D-03 BMatP= 4.15D-03
 IDIUse=3 WtCom= 9.62D-01 WtEn= 3.75D-02
 Coeff-Com:  0.434D-02 0.102D-01 0.253D-01 0.292D+00 0.668D+00
 Coeff-En:   0.000D+00 0.000D+00 0.000D+00 0.333D+00 0.667D+00
 Coeff:      0.418D-02 0.977D-02 0.244D-01 0.293D+00 0.668D+00
 Gap=     0.214 Goal=   None    Shift=    0.000
 RMSDP=6.70D-04 MaxDP=1.48D-02 DE=-2.03D-03 OVMax= 2.25D-02

 Cycle   6  Pass 1  IDiag  1:
 E= -639.320387912833     Delta-E=       -0.002241964119 Rises=F Damp=F
 DIIS: error= 8.82D-04 at cycle   6 NSaved=   6.
 NSaved= 6 IEnMin= 6 EnMin= -639.320387912833     IErMin= 6 ErrMin= 8.82D-04
 ErrMax= 8.82D-04  0.00D+00 EMaxC= 1.00D-01 BMatC= 1.77D-04 BMatP= 1.94D-03
 IDIUse=3 WtCom= 9.91D-01 WtEn= 8.82D-03
 Coeff-Com: -0.908D-02 0.427D-02 0.124D-01 0.101D+00 0.370D+00 0.521D+00
 Coeff-En:   0.000D+00 0.000D+00 0.000D+00 0.000D+00 0.000D+00 0.100D+01
 Coeff:     -0.900D-02 0.423D-02 0.123D-01 0.100D+00 0.367D+00 0.525D+00
 Gap=     0.211 Goal=   None    Shift=    0.000
 RMSDP=1.53D-04 MaxDP=4.54D-03 DE=-2.24D-03 OVMax= 5.81D-03

 Cycle   7  Pass 1  IDiag  1:
 E= -639.320554957841     Delta-E=       -0.000167045008 Rises=F Damp=F
 DIIS: error= 3.24D-04 at cycle   7 NSaved=   7.
 NSaved= 7 IEnMin= 7 EnMin= -639.320554957841     IErMin= 7 ErrMin= 3.24D-04
 ErrMax= 3.24D-04  0.00D+00 EMaxC= 1.00D-01 BMatC= 1.23D-05 BMatP= 1.77D-04
 IDIUse=3 WtCom= 9.97D-01 WtEn= 3.24D-03
 Coeff-Com: -0.403D-02 0.626D-03 0.312D-02-0.111D-01 0.323D-01 0.163D+00
 Coeff-Com:  0.816D+00
 Coeff-En:   0.000D+00 0.000D+00 0.000D+00 0.000D+00 0.000D+00 0.000D+00
 Coeff-En:   0.100D+01
 Coeff:     -0.402D-02 0.624D-03 0.311D-02-0.110D-01 0.322D-01 0.162D+00
 Coeff:      0.817D+00
 Gap=     0.211 Goal=   None    Shift=    0.000
 RMSDP=4.42D-05 MaxDP=1.57D-03 DE=-1.67D-04 OVMax= 2.07D-03

 Cycle   8  Pass 1  IDiag  1:
 E= -639.320568322953     Delta-E=       -0.000013365112 Rises=F Damp=F
 DIIS: error= 4.35D-05 at cycle   8 NSaved=   8.
 NSaved= 8 IEnMin= 8 EnMin= -639.320568322953     IErMin= 8 ErrMin= 4.35D-05
 ErrMax= 4.35D-05  0.00D+00 EMaxC= 1.00D-01 BMatC= 2.70D-07 BMatP= 1.23D-05
 IDIUse=1 WtCom= 1.00D+00 WtEn= 0.00D+00
 Coeff-Com: -0.457D-03 0.206D-04 0.275D-03-0.732D-02-0.108D-01 0.623D-02
 Coeff-Com:  0.215D+00 0.797D+00
 Coeff:     -0.457D-03 0.206D-04 0.275D-03-0.732D-02-0.108D-01 0.623D-02
 Coeff:      0.215D+00 0.797D+00
 Gap=     0.211 Goal=   None    Shift=    0.000
 RMSDP=1.02D-05 MaxDP=2.06D-04 DE=-1.34D-05 OVMax= 2.21D-04

 Cycle   9  Pass 1  IDiag  1:
 E= -639.320568607450     Delta-E=       -0.000000284497 Rises=F Damp=F
 DIIS: error= 1.03D-05 at cycle   9 NSaved=   9.
 NSaved= 9 IEnMin= 9 EnMin= -639.320568607450     IErMin= 9 ErrMin= 1.03D-05
 ErrMax= 1.03D-05  0.00D+00 EMaxC= 1.00D-01 BMatC= 2.11D-08 BMatP= 2.70D-07
 IDIUse=1 WtCom= 1.00D+00 WtEn= 0.00D+00
 Coeff-Com: -0.114D-03 0.237D-04 0.231D-04-0.228D-02-0.386D-02-0.120D-02
 Coeff-Com:  0.550D-01 0.302D+00 0.650D+00
 Coeff:     -0.114D-03 0.237D-04 0.231D-04-0.228D-02-0.386D-02-0.120D-02
 Coeff:      0.550D-01 0.302D+00 0.650D+00
 Gap=     0.211 Goal=   None    Shift=    0.000
 RMSDP=2.90D-06 MaxDP=6.78D-05 DE=-2.84D-07 OVMax= 6.07D-05

 Cycle  10  Pass 1  IDiag  1:
 E= -639.320568630044     Delta-E=       -0.000000022594 Rises=F Damp=F
 DIIS: error= 5.34D-06 at cycle  10 NSaved=  10.
 NSaved=10 IEnMin=10 EnMin= -639.320568630044     IErMin=10 ErrMin= 5.34D-06
 ErrMax= 5.34D-06  0.00D+00 EMaxC= 1.00D-01 BMatC= 3.45D-09 BMatP= 2.11D-08
 IDIUse=1 WtCom= 1.00D+00 WtEn= 0.00D+00
 Coeff-Com:  0.603D-05 0.986D-05-0.117D-04-0.390D-03-0.640D-03-0.144D-02
 Coeff-Com: -0.382D-02 0.288D-01 0.250D+00 0.727D+00
 Coeff:      0.603D-05 0.986D-05-0.117D-04-0.390D-03-0.640D-03-0.144D-02
 Coeff:     -0.382D-02 0.288D-01 0.250D+00 0.727D+00
 Gap=     0.211 Goal=   None    Shift=    0.000
 RMSDP=6.40D-07 MaxDP=1.57D-05 DE=-2.26D-08 OVMax= 1.59D-05

 Cycle  11  Pass 1  IDiag  1:
 E= -639.320568632702     Delta-E=       -0.000000002659 Rises=F Damp=F
 DIIS: error= 2.35D-06 at cycle  11 NSaved=  11.
 NSaved=11 IEnMin=11 EnMin= -639.320568632702     IErMin=11 ErrMin= 2.35D-06
 ErrMax= 2.35D-06  0.00D+00 EMaxC= 1.00D-01 BMatC= 5.15D-10 BMatP= 3.45D-09
 IDIUse=1 WtCom= 1.00D+00 WtEn= 0.00D+00
 Coeff-Com:  0.409D-06 0.314D-05 0.777D-05-0.993D-04-0.329D-04-0.413D-03
 Coeff-Com: -0.473D-02-0.762D-02 0.572D-01 0.244D+00 0.712D+00
 Coeff:      0.409D-06 0.314D-05 0.777D-05-0.993D-04-0.329D-04-0.413D-03
 Coeff:     -0.473D-02-0.762D-02 0.572D-01 0.244D+00 0.712D+00
 Gap=     0.211 Goal=   None    Shift=    0.000
 RMSDP=2.99D-07 MaxDP=6.03D-06 DE=-2.66D-09 OVMax= 1.24D-05

 Cycle  12  Pass 1  IDiag  1:
 E= -639.320568633203     Delta-E=       -0.000000000501 Rises=F Damp=F
 DIIS: error= 6.04D-07 at cycle  12 NSaved=  12.
 NSaved=12 IEnMin=12 EnMin= -639.320568633203     IErMin=12 ErrMin= 6.04D-07
 ErrMax= 6.04D-07  0.00D+00 EMaxC= 1.00D-01 BMatC= 2.64D-11 BMatP= 5.15D-10
 IDIUse=1 WtCom= 1.00D+00 WtEn= 0.00D+00
 Coeff-Com: -0.178D-05 0.428D-06 0.343D-05-0.259D-04-0.274D-04-0.574D-04
 Coeff-Com: -0.190D-03-0.127D-02-0.691D-03-0.257D-01 0.785D-01 0.949D+00
 Coeff:     -0.178D-05 0.428D-06 0.343D-05-0.259D-04-0.274D-04-0.574D-04
 Coeff:     -0.190D-03-0.127D-02-0.691D-03-0.257D-01 0.785D-01 0.949D+00
 Gap=     0.211 Goal=   None    Shift=    0.000
 RMSDP=5.44D-08 MaxDP=1.23D-06 DE=-5.01D-10 OVMax= 2.62D-06

 Cycle  13  Pass 1  IDiag  1:
 E= -639.320568633229     Delta-E=       -0.000000000026 Rises=F Damp=F
 DIIS: error= 5.73D-08 at cycle  13 NSaved=  13.
 NSaved=13 IEnMin=13 EnMin= -639.320568633229     IErMin=13 ErrMin= 5.73D-08
 ErrMax= 5.73D-08  0.00D+00 EMaxC= 1.00D-01 BMatC= 2.51D-13 BMatP= 2.64D-11
 IDIUse=1 WtCom= 1.00D+00 WtEn= 0.00D+00
 Coeff-Com: -0.194D-06 0.702D-07 0.274D-06-0.186D-05-0.424D-05-0.805D-07
 Coeff-Com:  0.467D-04 0.636D-04-0.601D-03-0.699D-02-0.517D-02 0.484D-01
 Coeff-Com:  0.964D+00
 Coeff:     -0.194D-06 0.702D-07 0.274D-06-0.186D-05-0.424D-05-0.805D-07
 Coeff:      0.467D-04 0.636D-04-0.601D-03-0.699D-02-0.517D-02 0.484D-01
 Coeff:      0.964D+00
 Gap=     0.211 Goal=   None    Shift=    0.000
 RMSDP=6.81D-09 MaxDP=1.67D-07 DE=-2.59D-11 OVMax= 2.81D-07

 SCF Done:  E(RB3LYP) =  -639.320568633     A.U. after   13 cycles
            NFock= 13  Conv=0.68D-08     -V/T= 2.0048
 KE= 6.362557498282D+02 PE=-1.819048836903D+03 EE= 3.962305772279D+02
 Leave Link  502 at Thu Nov 19 09:12:37 2020, MaxMem=   268435456 cpu:              52.4 elap:               6.9
 (Enter /afs/cad/linux/gaussian/g16_C.01/SSE4/g16/l801.exe)
 DoSCS=F DFT=T ScalE2(SS,OS)=  1.000000  1.000000
 Range of M.O.s used for correlation:     1   105
 NBasis=   105 NAE=    22 NBE=    22 NFC=     0 NFV=     0
 NROrb=    105 NOA=    22 NOB=    22 NVA=    83 NVB=    83

 **** Warning!!: The largest alpha MO coefficient is  0.29225015D+02

 Leave Link  801 at Thu Nov 19 09:12:37 2020, MaxMem=   268435456 cpu:               0.3 elap:               0.1
 (Enter /afs/cad/linux/gaussian/g16_C.01/SSE4/g16/l1101.exe)
 Using compressed storage, NAtomX=     9.
 Will process     10 centers per pass.
 Leave Link 1101 at Thu Nov 19 09:12:38 2020, MaxMem=   268435456 cpu:               1.3 elap:               0.2
 (Enter /afs/cad/linux/gaussian/g16_C.01/SSE4/g16/l1102.exe)
 Symmetrizing basis deriv contribution to polar:
 IMax=3 JMax=2 DiffMx= 0.00D+00
 Leave Link 1102 at Thu Nov 19 09:12:38 2020, MaxMem=   268435456 cpu:               0.2 elap:               0.0
 (Enter /afs/cad/linux/gaussian/g16_C.01/SSE4/g16/l1110.exe)
 Forming Gx(P) for the SCF density, NAtomX=     9.
 Integral derivatives from FoFJK, PRISM(SPDF).
 Do as many integral derivatives as possible in FoFJK.
 G2DrvN: MDV=     268434393.
 G2DrvN: will do    10 centers at a time, making    1 passes.
 Calling FoFCou, ICntrl=  3107 FMM=F I1Cent=   0 AccDes= 0.00D+00.
 FoFJK:  IHMeth= 1 ICntrl=    3107 DoSepK=F KAlg= 0 I1Cent=           0 FoldK=F
 IRaf=         0 NMat=       1 IRICut=       1 DoRegI=T DoRafI=F ISym2E= 0 IDoP0=0 IntGTp=1.
 FoFCou: FMM=F IPFlag=           0 FMFlag=      100000 FMFlg1=           0
         NFxFlg=           0 DoJE=F BraDBF=F KetDBF=F FulRan=T
         wScrn=  0.000000 ICntrl=      3107 IOpCl=  0 I1Cent=           0 NGrid=           0
         NMat0=    1 NMatS0=      1 NMatT0=    0 NMatD0=    1 NMtDS0=    0 NMtDT0=    0
 Symmetry not used in FoFCou.
 End of G2Drv F.D. properties file   721 does not exist.
 End of G2Drv F.D. properties file   722 does not exist.
 End of G2Drv F.D. properties file   788 does not exist.
 Leave Link 1110 at Thu Nov 19 09:12:48 2020, MaxMem=   268435456 cpu:              77.1 elap:               9.8
 (Enter /afs/cad/linux/gaussian/g16_C.01/SSE4/g16/l1002.exe)
 Minotr:  Closed shell wavefunction.
          IDoAtm=111111111
          Direct CPHF calculation.
          Differentiating once with respect to nuclear coordinates.
          Requested convergence is 1.0D-08 RMS, and 1.0D-07 maximum.
          Secondary convergence is 1.0D-12 RMS, and 1.0D-12 maximum.
          NewPWx=T KeepS1=F KeepF1=F KeepIn=T MapXYZ=F SortEE=F KeepMc=T.
         2732 words used for storage of precomputed grid.
 Keep R1 ints in memory in canonical form, NReq=22914703.
 FoFCou: FMM=F IPFlag=           0 FMFlag=           0 FMFlg1=           0
         NFxFlg=           0 DoJE=F BraDBF=F KetDBF=F FulRan=T
         wScrn=  0.000000 ICntrl=       600 IOpCl=  0 I1Cent=           0 NGrid=           0
         NMat0=    1 NMatS0=   5565 NMatT0=    0 NMatD0=    1 NMtDS0=    0 NMtDT0=    0
 Symmetry not used in FoFCou.
 Two-electron integral symmetry not used.
          MDV=     268435456 using IRadAn=       1.
          Solving linear equations simultaneously, MaxMat=       0.
          There are    30 degrees of freedom in the 1st order CPHF.  IDoFFX=6 NUNeed=     0.
     24 vectors produced by pass  0 Test12= 6.09D-15 3.33D-09 XBig12= 1.23D-01 1.78D-01.
 AX will form    24 AO Fock derivatives at one time.
     24 vectors produced by pass  1 Test12= 6.09D-15 3.33D-09 XBig12= 8.71D-03 2.28D-02.
     24 vectors produced by pass  2 Test12= 6.09D-15 3.33D-09 XBig12= 4.32D-04 4.21D-03.
     24 vectors produced by pass  3 Test12= 6.09D-15 3.33D-09 XBig12= 4.35D-06 4.70D-04.
     24 vectors produced by pass  4 Test12= 6.09D-15 3.33D-09 XBig12= 1.19D-08 2.25D-05.
     20 vectors produced by pass  5 Test12= 6.09D-15 3.33D-09 XBig12= 1.39D-11 6.91D-07.
      4 vectors produced by pass  6 Test12= 6.09D-15 3.33D-09 XBig12= 1.12D-14 1.70D-08.
 InvSVY:  IOpt=1 It=  1 EMax= 2.22D-15
 Solved reduced A of dimension   144 with    24 vectors.
 End of Minotr F.D. properties file   721 does not exist.
 End of Minotr F.D. properties file   722 does not exist.
 End of Minotr F.D. properties file   788 does not exist.
 Leave Link 1002 at Thu Nov 19 09:12:56 2020, MaxMem=   268435456 cpu:              69.6 elap:               8.8
 (Enter /afs/cad/linux/gaussian/g16_C.01/SSE4/g16/l601.exe)
 Copying SCF densities to generalized density rwf, IOpCl= 0 IROHF=0.

 **********************************************************************

            Population analysis using the SCF Density.

 **********************************************************************

 Alpha  occ. eigenvalues -- -101.33322 -24.36912 -10.09902 -10.03971  -9.24825
 Alpha  occ. eigenvalues --   -7.00912  -7.00421  -7.00417  -0.80867  -0.63432
 Alpha  occ. eigenvalues --   -0.57679  -0.46183  -0.31626  -0.27374  -0.25404
 Alpha  occ. eigenvalues --   -0.22250  -0.16243  -0.12020  -0.11932  -0.08536
 Alpha  occ. eigenvalues --   -0.08500  -0.08099
 Alpha virt. eigenvalues --    0.13045   0.14066   0.16306   0.18119   0.18750
 Alpha virt. eigenvalues --    0.21181   0.21567   0.22086   0.23302   0.23597
 Alpha virt. eigenvalues --    0.25819   0.25995   0.29299   0.32280   0.37759
 Alpha virt. eigenvalues --    0.40391   0.40549   0.44713   0.44869   0.47000
 Alpha virt. eigenvalues --    0.48263   0.50364   0.60087   0.72184   0.74806
 Alpha virt. eigenvalues --    0.75966   0.77546   0.81069   0.82174   0.84370
 Alpha virt. eigenvalues --    0.85124   0.90072   0.98036   1.05104   1.07167
 Alpha virt. eigenvalues --    1.07895   1.10134   1.12052   1.14446   1.15827
 Alpha virt. eigenvalues --    1.17287   1.22734   1.25238   1.37189   1.49300
 Alpha virt. eigenvalues --    1.60258   1.63174   1.72349   1.80681   1.81502
 Alpha virt. eigenvalues --    1.91940   1.98393   2.06099   2.09075   2.10245
 Alpha virt. eigenvalues --    2.15479   2.16731   2.18388   2.23001   2.23080
 Alpha virt. eigenvalues --    2.28244   2.29214   2.31270   2.36678   2.39317
 Alpha virt. eigenvalues --    2.55806   2.61640   2.68811   2.79629   2.81755
 Alpha virt. eigenvalues --    2.95023   2.99135   3.01451   3.07358   3.40851
 Alpha virt. eigenvalues --    3.50065   3.57946   3.62976   3.64917   4.47922
 Alpha virt. eigenvalues --    4.51277   4.76597   5.46275
          Condensed to atoms (all electrons):
               1          2          3          4          5          6
     1  C    5.131854   0.076534   0.415744   0.415744   0.022544   0.213596
     2  Cl   0.076534  17.577597  -0.045159  -0.045159   0.008566  -0.039588
     3  H    0.415744  -0.045159   0.502221  -0.016878  -0.032624  -0.035341
     4  H    0.415744  -0.045159  -0.016878   0.502222  -0.032624  -0.035341
     5  F    0.022544   0.008566  -0.032624  -0.032624   9.872281  -0.057126
     6  C    0.213596  -0.039588  -0.035341  -0.035341  -0.057126   5.209965
     7  H   -0.040401  -0.006810   0.003529  -0.004436   0.002369   0.396071
     8  H   -0.067128   0.008302  -0.000296  -0.000296  -0.014122   0.430045
     9  H   -0.040400  -0.006809  -0.004436   0.003529   0.002369   0.396070
               7          8          9
     1  C   -0.040401  -0.067128  -0.040400
     2  Cl  -0.006810   0.008302  -0.006809
     3  H    0.003529  -0.000296  -0.004436
     4  H   -0.004436  -0.000296   0.003529
     5  F    0.002369  -0.014122   0.002369
     6  C    0.396071   0.430045   0.396070
     7  H    0.575203  -0.026488  -0.032105
     8  H   -0.026488   0.483537  -0.026488
     9  H   -0.032105  -0.026488   0.575203
 Mulliken charges:
               1
     1  C   -0.128088
     2  Cl  -0.527474
     3  H    0.213240
     4  H    0.213239
     5  F   -0.771633
     6  C   -0.478352
     7  H    0.133067
     8  H    0.212934
     9  H    0.133067
 Sum of Mulliken charges =  -1.00000
 Mulliken charges with hydrogens summed into heavy atoms:
               1
     1  C    0.298392
     2  Cl  -0.527474
     5  F   -0.771633
     6  C    0.000716
 APT charges:
               1
     1  C   -0.520989
     2  Cl  -0.537426
     3  H    0.435694
     4  H    0.435694
     5  F   -0.837811
     6  C   -1.130995
     7  H    0.345368
     8  H    0.465095
     9  H    0.345370
 Sum of APT charges =  -1.00000
 APT charges with hydrogens summed into heavy atoms:
               1
     1  C    0.350399
     2  Cl  -0.537426
     5  F   -0.837811
     6  C    0.024838
 Electronic spatial extent (au):  <R**2>=            630.0175
 Charge=             -1.0000 electrons
 Dipole moment (field-independent basis, Debye):
    X=             -2.8788    Y=              2.6685    Z=              0.0000  Tot=              3.9253
 Quadrupole moment (field-independent basis, Debye-Ang):
   XX=            -69.2694   YY=            -37.7235   ZZ=            -34.9583
   XY=              4.9835   XZ=              0.0000   YZ=             -0.0000
 Traceless Quadrupole moment (field-independent basis, Debye-Ang):
   XX=            -21.9523   YY=              9.5936   ZZ=             12.3587
   XY=              4.9835   XZ=              0.0000   YZ=             -0.0000
 Octapole moment (field-independent basis, Debye-Ang**2):
  XXX=            -30.9197  YYY=             -2.6543  ZZZ=              0.0000  XYY=              0.2468
  XXY=             18.6812  XXZ=              0.0001  XZZ=              4.3961  YZZ=             -1.3645
  YYZ=             -0.0000  XYZ=             -0.0000
 Hexadecapole moment (field-independent basis, Debye-Ang**3):
 XXXX=           -803.5566 YYYY=           -174.9854 ZZZZ=            -57.8064 XXXY=             33.6771
 XXXZ=              0.0002 YYYX=             -4.6194 YYYZ=             -0.0000 ZZZX=             -0.0000
 ZZZY=             -0.0001 XXYY=           -146.5992 XXZZ=           -118.1735 YYZZ=            -36.6533
 XXYZ=              0.0000 YYXZ=             -0.0000 ZZXY=             -2.9830
 N-N= 1.472419412133D+02 E-N=-1.819048832612D+03  KE= 6.362557498282D+02
  Exact polarizability:       0.000       0.000       0.000       0.000       0.000       0.000
 Approx polarizability:     124.185      -3.336      55.767       0.000      -0.000      51.344
 No NMR shielding tensors so no spin-rotation constants.
 Leave Link  601 at Thu Nov 19 09:12:57 2020, MaxMem=   268435456 cpu:               1.3 elap:               0.2
 (Enter /afs/cad/linux/gaussian/g16_C.01/SSE4/g16/l701.exe)
 ... and contract with generalized density number  0.
 Compute integral second derivatives.
 Leave Link  701 at Thu Nov 19 09:12:57 2020, MaxMem=   268435456 cpu:               1.7 elap:               0.2
 (Enter /afs/cad/linux/gaussian/g16_C.01/SSE4/g16/l702.exe)
 L702 exits ... SP integral derivatives will be done elsewhere.
 Leave Link  702 at Thu Nov 19 09:12:57 2020, MaxMem=   268435456 cpu:               0.1 elap:               0.0
 (Enter /afs/cad/linux/gaussian/g16_C.01/SSE4/g16/l703.exe)
 Integral derivatives from FoFJK, PRISM(SPDF).
 Compute integral second derivatives, UseDBF=F ICtDFT=           0.
 Calling FoFJK, ICntrl=    100127 FMM=F ISym2X=0 I1Cent= 0 IOpClX= 0 NMat=1 NMatS=1 NMatT=0.
 FoFJK:  IHMeth= 1 ICntrl=  100127 DoSepK=F KAlg= 0 I1Cent=           0 FoldK=F
 IRaf=         0 NMat=       1 IRICut=       1 DoRegI=T DoRafI=F ISym2E= 0 IDoP0=0 IntGTp=1.
 FoFCou: FMM=F IPFlag=           0 FMFlag=      100000 FMFlg1=         800
         NFxFlg=           0 DoJE=F BraDBF=F KetDBF=F FulRan=T
         wScrn=  0.000000 ICntrl=    100127 IOpCl=  0 I1Cent=           0 NGrid=           0
         NMat0=    1 NMatS0=      1 NMatT0=    0 NMatD0=    1 NMtDS0=    0 NMtDT0=    0
 Symmetry not used in FoFCou.
 Leave Link  703 at Thu Nov 19 09:13:15 2020, MaxMem=   268435456 cpu:             139.9 elap:              17.5
 (Enter /afs/cad/linux/gaussian/g16_C.01/SSE4/g16/l716.exe)
 Dipole        =-1.13261379D+00 1.04985692D+00 6.85869620D-06
 Polarizability= 0.00000000D+00 0.00000000D+00 0.00000000D+00
                 0.00000000D+00 0.00000000D+00 0.00000000D+00
 -------------------------------------------------------------------
 Center     Atomic                   Forces (Hartrees/Bohr)
 Number     Number              X              Y              Z
 -------------------------------------------------------------------
      1        6           0.000004599   -0.000001594   -0.000000407
      2       17           0.000001020    0.000000326    0.000000055
      3        1          -0.000003542    0.000001767   -0.000000953
      4        1          -0.000003556    0.000001792    0.000001054
      5        9           0.000002038    0.000000838    0.000000089
      6        6           0.000000375   -0.000000436   -0.000000069
      7        1          -0.000000597    0.000000146    0.000000091
      8        1           0.000000454   -0.000002772    0.000000092
      9        1          -0.000000791   -0.000000068    0.000000048
 -------------------------------------------------------------------
 Cartesian Forces:  Max     0.000004599 RMS     0.000001640
 Z-matrix is all fixed cartesians, so copy forces.
 Force constants in Cartesian coordinates: 
                1             2             3             4             5 
      1  0.161701D-01
      2  0.117231D-01  0.565784D+00
      3  0.000000D+00  0.000000D+00  0.710255D+00
      4  0.377432D-01  0.593648D-02  0.000000D+00  0.459225D-01
      5  0.601564D-02 -0.170366D-01  0.000000D+00  0.154138D-02  0.157638D-01
      6  0.000000D+00  0.000000D+00 -0.221714D-01  0.000000D+00  0.000000D+00
      7 -0.122703D-01  0.133285D-01  0.293893D-01 -0.211476D-01  0.481646D-02
      8  0.130775D-01 -0.139013D+00 -0.141562D+00 -0.186254D-02  0.126723D-02
      9  0.273558D-01 -0.141632D+00 -0.293097D+00 -0.292248D-02  0.167786D-02
     10 -0.122706D-01  0.133281D-01 -0.293889D-01 -0.211474D-01  0.481640D-02
     11  0.130770D-01 -0.139011D+00  0.141561D+00 -0.186249D-02  0.126719D-02
     12 -0.273552D-01  0.141631D+00 -0.293098D+00  0.292239D-02 -0.167782D-02
     13  0.315093D-01 -0.119737D-01  0.000000D+00 -0.196673D-01  0.180767D-02
     14 -0.135663D-01 -0.605374D-02  0.000000D+00  0.322984D-02  0.183273D-02
     15  0.000000D+00  0.000000D+00 -0.131848D-01  0.000000D+00  0.000000D+00
     16 -0.528630D-01 -0.145191D-01  0.000000D+00 -0.240038D-01 -0.174165D-01
     17 -0.239175D-01 -0.231411D+00  0.000000D+00 -0.397409D-02 -0.229127D-02
     18  0.000000D+00  0.000000D+00 -0.880539D-01  0.000000D+00  0.000000D+00
     19  0.340413D-03 -0.643377D-02 -0.707091D-02  0.862479D-03 -0.281054D-03
     20  0.132811D-01 -0.153471D-01 -0.309528D-01 -0.225351D-03  0.875499D-03
     21  0.921241D-03 -0.446728D-03  0.162540D-03 -0.602437D-03  0.102877D-02
     22 -0.869952D-02 -0.495594D-02  0.000000D+00  0.575412D-03 -0.101913D-02
     23 -0.329706D-01 -0.256484D-02  0.000000D+00 -0.255791D-02 -0.255401D-02
     24  0.000000D+00  0.000000D+00 -0.975128D-03  0.000000D+00  0.000000D+00
     25  0.340341D-03 -0.643358D-02  0.707103D-02  0.862497D-03 -0.280908D-03
     26  0.132801D-01 -0.153469D-01  0.309534D-01 -0.225313D-03  0.875474D-03
     27 -0.921357D-03  0.446522D-03  0.162528D-03  0.602493D-03 -0.102872D-02
                6             7             8             9            10 
      6  0.114108D-01
      7  0.923074D-02  0.393463D-01
      8  0.170161D-02 -0.146268D-01  0.140766D+00
      9  0.310327D-02 -0.274218D-01  0.148276D+00  0.294615D+00
     10 -0.923087D-02  0.402952D-02 -0.120540D-02  0.275383D-02  0.393461D-01
     11 -0.170159D-02 -0.120540D-02  0.103637D-01 -0.135128D-01 -0.146262D-01
     12  0.310326D-02 -0.275380D-02  0.135127D-01 -0.134978D-01  0.274213D-01
     13  0.000000D+00 -0.149484D-01  0.203328D-02  0.148016D-03 -0.149480D-01
     14  0.000000D+00  0.155718D-02  0.183277D-04  0.119694D-02  0.155714D-02
     15  0.254928D-02 -0.345544D-02  0.120818D-02  0.171727D-02  0.345551D-02
     16  0.000000D+00  0.474247D-02  0.410078D-02  0.333662D-03  0.474224D-02
     17  0.000000D+00 -0.310036D-02 -0.954389D-02  0.336081D-02 -0.310034D-02
     18 -0.217730D-03 -0.635842D-02 -0.234199D-01  0.475481D-02  0.635846D-02
     19 -0.508804D-03  0.240219D-03 -0.203711D-02 -0.662883D-04 -0.145323D-03
     20  0.728643D-03 -0.157304D-02 -0.510318D-02  0.129630D-02 -0.936275D-04
     21  0.559644D-03  0.311594D-03  0.143315D-03  0.138269D-02 -0.549565D-03
     22  0.000000D+00  0.153135D-03 -0.154319D-03  0.146354D-03  0.153206D-03
     23  0.000000D+00  0.897025D-03 -0.254220D-03 -0.108968D-03  0.897012D-03
     24  0.110314D-02  0.508251D-03 -0.424044D-04  0.792660D-04 -0.508244D-03
     25  0.508738D-03 -0.145343D-03  0.674554D-03 -0.327072D-03  0.240294D-03
     26 -0.728653D-03 -0.935958D-04  0.149899D-02 -0.553808D-03 -0.157306D-02
     27  0.559666D-03  0.549560D-03  0.183055D-03  0.941914D-03 -0.311580D-03
               11            12            13            14            15 
     11  0.140764D+00
     12 -0.148275D+00  0.294617D+00
     13  0.203325D-02 -0.148026D-03  0.271760D-01
     14  0.183066D-04 -0.119693D-02 -0.586645D-02  0.134599D-01
     15 -0.120817D-02  0.171730D-02  0.000000D+00  0.000000D+00  0.507269D-02
     16  0.410065D-02 -0.333655D-03 -0.359605D-02  0.580701D-02  0.000000D+00
     17 -0.954373D-02 -0.336068D-02  0.600494D-02 -0.857779D-02  0.000000D+00
     18  0.234201D-01  0.475464D-02  0.000000D+00  0.000000D+00  0.294039D-02
     19  0.674558D-03  0.327055D-03 -0.105778D-02  0.213506D-02 -0.964698D-03
     20  0.149895D-02  0.553832D-03  0.112102D-02 -0.411151D-03  0.523508D-03
     21 -0.183063D-03  0.941877D-03 -0.310871D-03 -0.199888D-04  0.196621D-03
     22 -0.154313D-03 -0.146326D-03 -0.341013D-02  0.301158D-02  0.000000D+00
     23 -0.254093D-03  0.109010D-03  0.371900D-02  0.124502D-03  0.000000D+00
     24  0.423895D-04  0.792728D-04  0.000000D+00  0.000000D+00 -0.120537D-02
     25 -0.203707D-02  0.662598D-04 -0.105774D-02  0.213490D-02  0.964771D-03
     26 -0.510324D-02 -0.129626D-02  0.112099D-02 -0.411096D-03 -0.523551D-03
     27 -0.143363D-03  0.138273D-02  0.310770D-03  0.200806D-04  0.196642D-03
               16            17            18            19            20 
     16  0.554944D+00
     17 -0.371210D-01  0.493750D+00
     18  0.000000D+00  0.000000D+00  0.570957D+00
     19 -0.868179D-01  0.476844D-01  0.865521D-01  0.897678D-01
     20  0.433428D-01 -0.937355D-01 -0.880161D-01 -0.482862D-01  0.104795D+00
     21  0.834708D-01 -0.908397D-01 -0.223182D+00 -0.939898D-01  0.100175D+00
     22 -0.310337D+00 -0.301560D-01 -0.426804D-05 -0.786650D-02 -0.986573D-03
     23 -0.316331D-01 -0.449138D-01  0.000000D+00  0.131239D-01  0.124263D-02
     24 -0.419631D-05  0.000000D+00 -0.487629D-01  0.266984D-01  0.451732D-02
     25 -0.868117D-01  0.476799D-01 -0.865474D-01  0.467662D-02 -0.658003D-02
     26  0.433385D-01 -0.937335D-01  0.880161D-01 -0.657975D-02  0.618495D-02
     27 -0.834662D-01  0.908401D-01 -0.223190D+00 -0.109771D-01  0.111746D-01
               21            22            23            24            25 
     21  0.239428D+00
     22 -0.229006D-03  0.337297D+00
     23  0.131801D-02  0.354011D-01  0.479313D-01
     24  0.952441D-03  0.467369D-05  0.000000D+00  0.477778D-01
     25  0.109780D-01 -0.786577D-02  0.131236D-01 -0.266990D-01  0.897608D-01
     26 -0.111752D-01 -0.986432D-03  0.124259D-02 -0.451731D-02 -0.482814D-01
     27 -0.204416D-01  0.228687D-03 -0.131750D-02  0.951498D-03  0.939847D-01
               26            27 
     26  0.104793D+00
     27 -0.100175D+00  0.239437D+00
 Leave Link  716 at Thu Nov 19 09:13:15 2020, MaxMem=   268435456 cpu:               0.3 elap:               0.1
 (Enter /afs/cad/linux/gaussian/g16_C.01/SSE4/g16/l123.exe)
 IRC-IRC-IRC-IRC-IRC-IRC-IRC-IRC-IRC-IRC-IRC-IRC-IRC-IRC-IRC-IRC-IRC-IRC
          ******** Start new reaction path calculation ********
 Current Structure is TS -> form Hessian eigenvectors.
                            Diagonalizing Hessian.
 Supplied step size of   0.0500 bohr.
    Integration on MW PES will use step size of   0.1471 sqrt(amu)*bohr.
 Point Number:   0          Path Number:   1
 Calculating another point on the path.
 Point Number  1 in FORWARD path direction.
 Using LQA Reaction Path Following.
 IRC-IRC-IRC-IRC-IRC-IRC-IRC-IRC-IRC-IRC-IRC-IRC-IRC-IRC-IRC-IRC-IRC-IRC
 Leave Link  123 at Thu Nov 19 09:13:15 2020, MaxMem=   268435456 cpu:               2.1 elap:               0.3
 (Enter /afs/cad/linux/gaussian/g16_C.01/SSE4/g16/l202.exe)
                          Input orientation:                          
 ---------------------------------------------------------------------
 Center     Atomic      Atomic             Coordinates (Angstroms)
 Number     Number       Type             X           Y           Z
 ---------------------------------------------------------------------
      1          6           0        0.368298   -0.128013    0.000004
      2         17           0       -1.804258   -0.197078   -0.000001
      3          1           0        0.494521   -0.685933   -0.911718
      4          1           0        0.494519   -0.685927    0.911731
      5          9           0        2.512047   -0.605506   -0.000002
      6          6           0        0.645926    1.347332    0.000000
      7          1           0        0.223939    1.829646    0.887553
      8          1           0        1.735467    1.446787    0.000017
      9          1           0        0.223972    1.829636   -0.887574
 ---------------------------------------------------------------------
                    Distance matrix (angstroms):
                    1          2          3          4          5
     1  C    0.000000
     2  Cl   2.173654   0.000000
     3  H    1.076311   2.520832   0.000000
     4  H    1.076311   2.520834   1.823448   0.000000
     5  F    2.196283   4.335586   2.215424   2.215433   0.000000
     6  C    1.501240   2.896309   2.233455   2.233455   2.701108
     7  H    2.154301   3.001491   3.104630   2.530199   3.457334
     8  H    2.085460   3.902812   2.630532   2.630521   2.194307
     9  H    2.154302   3.001512   2.530192   3.104634   3.457310
                    6          7          8          9
     6  C    0.000000
     7  H    1.094738   0.000000
     8  H    1.094070   1.794162   0.000000
     9  H    1.094738   1.775127   1.794159   0.000000
 Symmetry turned off by external request.
 Stoichiometry    C2H5ClF(1-)
 Framework group  C1[X(C2H5ClF)]
 Deg. of freedom    21
 Full point group                 C1      NOp   1
 Rotational constants (GHZ):          11.6721671           2.0433790           1.7789009
 Leave Link  202 at Thu Nov 19 09:13:15 2020, MaxMem=   268435456 cpu:               0.1 elap:               0.1
 (Enter /afs/cad/linux/gaussian/g16_C.01/SSE4/g16/l301.exe)
 Standard basis: 6-31+G(d,p) (6D, 7F)
 Ernie: Thresh=  0.10000D-02 Tol=  0.10000D-05 Strict=F.
   105 basis functions,   187 primitive gaussians,   105 cartesian basis functions
    22 alpha electrons       22 beta electrons
       nuclear repulsion energy       147.3395476272 Hartrees.
 IExCor=  402 DFT=T Ex+Corr=B3LYP ExCW=0 ScaHFX=  0.200000
 ScaDFX=  0.800000  0.720000  1.000000  0.810000 ScalE2=  1.000000  1.000000
 IRadAn=      5 IRanWt=     -1 IRanGd=            0 ICorTp=0 IEmpDi=  4
 NAtoms=    9 NActive=    9 NUniq=    9 SFac= 1.00D+00 NAtFMM=   60 NAOKFM=F Big=F
 Integral buffers will be    131072 words long.
 Raffenetti 2 integral format.
 Two-electron integral symmetry is turned off.
 Leave Link  301 at Thu Nov 19 09:13:15 2020, MaxMem=   268435456 cpu:               0.4 elap:               0.1
 (Enter /afs/cad/linux/gaussian/g16_C.01/SSE4/g16/l302.exe)
 NPDir=0 NMtPBC=     1 NCelOv=     1 NCel=       1 NClECP=     1 NCelD=      1
         NCelK=      1 NCelE2=     1 NClLst=     1 CellRange=     0.0.
 One-electron integrals computed using PRISM.
 NBasis=   105 RedAO= T EigKep=  2.39D-04  NBF=   105
 NBsUse=   105 1.00D-06 EigRej= -1.00D+00 NBFU=   105
 Precomputing XC quadrature grid using
 IXCGrd= 4 IRadAn=           5 IRanWt=          -1 IRanGd=           0 AccXCQ= 0.00D+00.
 Generated NRdTot=       0 NPtTot=           0 NUsed=           0 NTot=          32
 NSgBfM=   105   105   105   105   105 MxSgAt=     9 MxSgA2=     9.
 Leave Link  302 at Thu Nov 19 09:13:16 2020, MaxMem=   268435456 cpu:               1.6 elap:               0.2
 (Enter /afs/cad/linux/gaussian/g16_C.01/SSE4/g16/l303.exe)
 DipDrv:  MaxL=1.
 Leave Link  303 at Thu Nov 19 09:13:16 2020, MaxMem=   268435456 cpu:               0.2 elap:               0.0
 (Enter /afs/cad/linux/gaussian/g16_C.01/SSE4/g16/l401.exe)
 Initial guess from the checkpoint file:  "/home/b/buttard/SN2-E2/irc/Gau-20286.chk"
 B after Tr=     0.052464    0.098891    0.000000
         Rot=    1.000000    0.000000   -0.000000    0.000042 Ang=   0.00 deg.
 Guess basis will be translated and rotated to current coordinates.
 JPrj=2 DoOrth=T DoCkMO=T.
 Generating alternative initial guess.
 ExpMin= 4.38D-02 ExpMax= 2.52D+04 ExpMxC= 3.78D+03 IAcc=3 IRadAn=         5 AccDes= 0.00D+00
 Harris functional with IExCor=  402 and IRadAn=       5 diagonalized for initial guess.
 HarFok:  IExCor=  402 AccDes= 0.00D+00 IRadAn=         5 IDoV= 1 UseB2=F ITyADJ=14
 ICtDFT=  3500011 ScaDFX=  1.000000  1.000000  1.000000  1.000000
 FoFCou: FMM=F IPFlag=           0 FMFlag=      100000 FMFlg1=           0
         NFxFlg=           0 DoJE=T BraDBF=F KetDBF=T FulRan=T
         wScrn=  0.000000 ICntrl=       500 IOpCl=  0 I1Cent=   200000004 NGrid=           0
         NMat0=    1 NMatS0=      1 NMatT0=    0 NMatD0=    1 NMtDS0=    0 NMtDT0=    0
 Symmetry not used in FoFCou.
 Harris En= -639.429830503819    
 Leave Link  401 at Thu Nov 19 09:13:16 2020, MaxMem=   268435456 cpu:               5.5 elap:               0.7
 (Enter /afs/cad/linux/gaussian/g16_C.01/SSE4/g16/l502.exe)
 Keep R1 ints in memory in canonical form, NReq=22933992.
 FoFCou: FMM=F IPFlag=           0 FMFlag=           0 FMFlg1=           0
         NFxFlg=           0 DoJE=F BraDBF=F KetDBF=F FulRan=T
         wScrn=  0.000000 ICntrl=       600 IOpCl=  0 I1Cent=           0 NGrid=           0
         NMat0=    1 NMatS0=   5565 NMatT0=    0 NMatD0=    1 NMtDS0=    0 NMtDT0=    0
 Symmetry not used in FoFCou.
 Two-electron integral symmetry not used.
 Closed shell SCF:
 Using DIIS extrapolation, IDIIS=  1040.
 NGot=   268435456 LenX=   252923994 LenY=   252912528
 Requested convergence on RMS density matrix=1.00D-08 within 128 cycles.
 Requested convergence on MAX density matrix=1.00D-06.
 Requested convergence on             energy=1.00D-06.
 No special actions if energy rises.

 Cycle   1  Pass 1  IDiag  1:
 E= -639.320385888656    
 DIIS: error= 6.45D-04 at cycle   1 NSaved=   1.
 NSaved= 1 IEnMin= 1 EnMin= -639.320385888656     IErMin= 1 ErrMin= 6.45D-04
 ErrMax= 6.45D-04  0.00D+00 EMaxC= 1.00D-01 BMatC= 9.54D-05 BMatP= 9.54D-05
 IDIUse=3 WtCom= 9.94D-01 WtEn= 6.45D-03
 Coeff-Com:  0.100D+01
 Coeff-En:   0.100D+01
 Coeff:      0.100D+01
 Gap=     0.669 Goal=   None    Shift=    0.000
 RMSDP=2.53D-04 MaxDP=5.35D-03              OVMax= 1.00D-02

 Cycle   2  Pass 1  IDiag  1:
 E= -639.320597241152     Delta-E=       -0.000211352496 Rises=F Damp=F
 DIIS: error= 3.24D-04 at cycle   2 NSaved=   2.
 NSaved= 2 IEnMin= 2 EnMin= -639.320597241152     IErMin= 2 ErrMin= 3.24D-04
 ErrMax= 3.24D-04  0.00D+00 EMaxC= 1.00D-01 BMatC= 1.29D-05 BMatP= 9.54D-05
 IDIUse=3 WtCom= 9.97D-01 WtEn= 3.24D-03
 Coeff-Com:  0.107D+00 0.893D+00
 Coeff-En:   0.000D+00 0.100D+01
 Coeff:      0.107D+00 0.893D+00
 Gap=     0.208 Goal=   None    Shift=    0.000
 RMSDP=1.30D-04 MaxDP=2.89D-03 DE=-2.11D-04 OVMax= 3.79D-03

 Cycle   3  Pass 1  IDiag  1:
 E= -639.320588596617     Delta-E=        0.000008644535 Rises=F Damp=F
 DIIS: error= 3.48D-04 at cycle   3 NSaved=   3.
 NSaved= 3 IEnMin= 2 EnMin= -639.320597241152     IErMin= 2 ErrMin= 3.24D-04
 ErrMax= 3.48D-04  0.00D+00 EMaxC= 1.00D-01 BMatC= 2.31D-05 BMatP= 1.29D-05
 IDIUse=3 WtCom= 3.49D-01 WtEn= 6.51D-01
 Coeff-Com: -0.109D-01 0.584D+00 0.427D+00
 Coeff-En:   0.000D+00 0.589D+00 0.411D+00
 Coeff:     -0.379D-02 0.587D+00 0.417D+00
 Gap=     0.209 Goal=   None    Shift=    0.000
 RMSDP=5.97D-05 MaxDP=1.92D-03 DE= 8.64D-06 OVMax= 2.09D-03

 Cycle   4  Pass 1  IDiag  1:
 E= -639.320614581421     Delta-E=       -0.000025984804 Rises=F Damp=F
 DIIS: error= 1.02D-04 at cycle   4 NSaved=   4.
 NSaved= 4 IEnMin= 4 EnMin= -639.320614581421     IErMin= 4 ErrMin= 1.02D-04
 ErrMax= 1.02D-04  0.00D+00 EMaxC= 1.00D-01 BMatC= 7.63D-07 BMatP= 1.29D-05
 IDIUse=3 WtCom= 9.99D-01 WtEn= 1.02D-03
 Coeff-Com: -0.210D-01 0.237D+00 0.194D+00 0.590D+00
 Coeff-En:   0.000D+00 0.000D+00 0.000D+00 0.100D+01
 Coeff:     -0.210D-01 0.237D+00 0.193D+00 0.591D+00
 Gap=     0.208 Goal=   None    Shift=    0.000
 RMSDP=9.43D-06 MaxDP=2.66D-04 DE=-2.60D-05 OVMax= 3.67D-04

 Cycle   5  Pass 1  IDiag  1:
 E= -639.320614811830     Delta-E=       -0.000000230409 Rises=F Damp=F
 DIIS: error= 6.69D-05 at cycle   5 NSaved=   5.
 NSaved= 5 IEnMin= 5 EnMin= -639.320614811830     IErMin= 5 ErrMin= 6.69D-05
 ErrMax= 6.69D-05  0.00D+00 EMaxC= 1.00D-01 BMatC= 3.82D-07 BMatP= 7.63D-07
 IDIUse=1 WtCom= 1.00D+00 WtEn= 0.00D+00
 Coeff-Com: -0.993D-02 0.754D-01 0.647D-01 0.430D+00 0.439D+00
 Coeff:     -0.993D-02 0.754D-01 0.647D-01 0.430D+00 0.439D+00
 Gap=     0.209 Goal=   None    Shift=    0.000
 RMSDP=4.97D-06 MaxDP=1.37D-04 DE=-2.30D-07 OVMax= 2.59D-04

 Cycle   6  Pass 1  IDiag  1:
 E= -639.320615109241     Delta-E=       -0.000000297410 Rises=F Damp=F
 DIIS: error= 4.94D-06 at cycle   6 NSaved=   6.
 NSaved= 6 IEnMin= 6 EnMin= -639.320615109241     IErMin= 6 ErrMin= 4.94D-06
 ErrMax= 4.94D-06  0.00D+00 EMaxC= 1.00D-01 BMatC= 2.76D-09 BMatP= 3.82D-07
 IDIUse=1 WtCom= 1.00D+00 WtEn= 0.00D+00
 Coeff-Com: -0.141D-02 0.405D-02 0.391D-02 0.796D-01 0.134D+00 0.780D+00
 Coeff:     -0.141D-02 0.405D-02 0.391D-02 0.796D-01 0.134D+00 0.780D+00
 Gap=     0.209 Goal=   None    Shift=    0.000
 RMSDP=8.61D-07 MaxDP=1.74D-05 DE=-2.97D-07 OVMax= 1.78D-05

 Cycle   7  Pass 1  IDiag  1:
 E= -639.320615112089     Delta-E=       -0.000000002848 Rises=F Damp=F
 DIIS: error= 1.20D-06 at cycle   7 NSaved=   7.
 NSaved= 7 IEnMin= 7 EnMin= -639.320615112089     IErMin= 7 ErrMin= 1.20D-06
 ErrMax= 1.20D-06  0.00D+00 EMaxC= 1.00D-01 BMatC= 2.37D-10 BMatP= 2.76D-09
 IDIUse=1 WtCom= 1.00D+00 WtEn= 0.00D+00
 Coeff-Com:  0.964D-04-0.314D-02-0.184D-02 0.398D-02 0.295D-01 0.267D+00
 Coeff-Com:  0.704D+00
 Coeff:      0.964D-04-0.314D-02-0.184D-02 0.398D-02 0.295D-01 0.267D+00
 Coeff:      0.704D+00
 Gap=     0.209 Goal=   None    Shift=    0.000
 RMSDP=3.09D-07 MaxDP=1.04D-05 DE=-2.85D-09 OVMax= 4.53D-06

 Cycle   8  Pass 1  IDiag  1:
 E= -639.320615112293     Delta-E=       -0.000000000204 Rises=F Damp=F
 DIIS: error= 4.60D-07 at cycle   8 NSaved=   8.
 NSaved= 8 IEnMin= 8 EnMin= -639.320615112293     IErMin= 8 ErrMin= 4.60D-07
 ErrMax= 4.60D-07  0.00D+00 EMaxC= 1.00D-01 BMatC= 4.25D-11 BMatP= 2.37D-10
 IDIUse=1 WtCom= 1.00D+00 WtEn= 0.00D+00
 Coeff-Com:  0.158D-03-0.193D-02-0.101D-02-0.554D-02 0.456D-02 0.556D-01
 Coeff-Com:  0.331D+00 0.617D+00
 Coeff:      0.158D-03-0.193D-02-0.101D-02-0.554D-02 0.456D-02 0.556D-01
 Coeff:      0.331D+00 0.617D+00
 Gap=     0.209 Goal=   None    Shift=    0.000
 RMSDP=7.09D-08 MaxDP=1.49D-06 DE=-2.04D-10 OVMax= 1.77D-06

 Cycle   9  Pass 1  IDiag  1:
 E= -639.320615112333     Delta-E=       -0.000000000040 Rises=F Damp=F
 DIIS: error= 7.73D-08 at cycle   9 NSaved=   9.
 NSaved= 9 IEnMin= 9 EnMin= -639.320615112333     IErMin= 9 ErrMin= 7.73D-08
 ErrMax= 7.73D-08  0.00D+00 EMaxC= 1.00D-01 BMatC= 5.47D-13 BMatP= 4.25D-11
 IDIUse=1 WtCom= 1.00D+00 WtEn= 0.00D+00
 Coeff-Com:  0.219D-04-0.222D-03-0.559D-04-0.108D-02 0.893D-04-0.211D-02
 Coeff-Com:  0.231D-01 0.853D-01 0.895D+00
 Coeff:      0.219D-04-0.222D-03-0.559D-04-0.108D-02 0.893D-04-0.211D-02
 Coeff:      0.231D-01 0.853D-01 0.895D+00
 Gap=     0.209 Goal=   None    Shift=    0.000
 RMSDP=2.19D-08 MaxDP=8.19D-07 DE=-4.05D-11 OVMax= 3.34D-07

 Cycle  10  Pass 1  IDiag  1:
 E= -639.320615112340     Delta-E=       -0.000000000006 Rises=F Damp=F
 DIIS: error= 1.76D-08 at cycle  10 NSaved=  10.
 NSaved=10 IEnMin=10 EnMin= -639.320615112340     IErMin=10 ErrMin= 1.76D-08
 ErrMax= 1.76D-08  0.00D+00 EMaxC= 1.00D-01 BMatC= 4.41D-14 BMatP= 5.47D-13
 IDIUse=1 WtCom= 1.00D+00 WtEn= 0.00D+00
 Coeff-Com:  0.213D-05-0.330D-05 0.127D-04-0.124D-03-0.150D-03-0.288D-02
 Coeff-Com: -0.564D-02 0.463D-02 0.340D+00 0.665D+00
 Coeff:      0.213D-05-0.330D-05 0.127D-04-0.124D-03-0.150D-03-0.288D-02
 Coeff:     -0.564D-02 0.463D-02 0.340D+00 0.665D+00
 Gap=     0.209 Goal=   None    Shift=    0.000
 RMSDP=5.62D-09 MaxDP=2.04D-07 DE=-6.48D-12 OVMax= 7.83D-08

 SCF Done:  E(RB3LYP) =  -639.320615112     A.U. after   10 cycles
            NFock= 10  Conv=0.56D-08     -V/T= 2.0048
 KE= 6.362572584293D+02 PE=-1.819229854333D+03 EE= 3.963124331637D+02
 Leave Link  502 at Thu Nov 19 09:13:22 2020, MaxMem=   268435456 cpu:              43.2 elap:               5.7
 (Enter /afs/cad/linux/gaussian/g16_C.01/SSE4/g16/l801.exe)
 DoSCS=F DFT=T ScalE2(SS,OS)=  1.000000  1.000000
 Range of M.O.s used for correlation:     1   105
 NBasis=   105 NAE=    22 NBE=    22 NFC=     0 NFV=     0
 NROrb=    105 NOA=    22 NOB=    22 NVA=    83 NVB=    83

 **** Warning!!: The largest alpha MO coefficient is  0.29127756D+02

 Leave Link  801 at Thu Nov 19 09:13:22 2020, MaxMem=   268435456 cpu:               0.3 elap:               0.1
 (Enter /afs/cad/linux/gaussian/g16_C.01/SSE4/g16/l1101.exe)
 Using compressed storage, NAtomX=     9.
 Will process     10 centers per pass.
 Leave Link 1101 at Thu Nov 19 09:13:22 2020, MaxMem=   268435456 cpu:               1.3 elap:               0.2
 (Enter /afs/cad/linux/gaussian/g16_C.01/SSE4/g16/l1102.exe)
 Symmetrizing basis deriv contribution to polar:
 IMax=3 JMax=2 DiffMx= 0.00D+00
 Leave Link 1102 at Thu Nov 19 09:13:23 2020, MaxMem=   268435456 cpu:               1.9 elap:               0.3
 (Enter /afs/cad/linux/gaussian/g16_C.01/SSE4/g16/l1110.exe)
 Forming Gx(P) for the SCF density, NAtomX=     9.
 Integral derivatives from FoFJK, PRISM(SPDF).
 Do as many integral derivatives as possible in FoFJK.
 G2DrvN: MDV=     268434393.
 G2DrvN: will do    10 centers at a time, making    1 passes.
 Calling FoFCou, ICntrl=  3107 FMM=F I1Cent=   0 AccDes= 0.00D+00.
 FoFJK:  IHMeth= 1 ICntrl=    3107 DoSepK=F KAlg= 0 I1Cent=           0 FoldK=F
 IRaf=         0 NMat=       1 IRICut=       1 DoRegI=T DoRafI=F ISym2E= 0 IDoP0=0 IntGTp=1.
 FoFCou: FMM=F IPFlag=           0 FMFlag=      100000 FMFlg1=           0
         NFxFlg=           0 DoJE=F BraDBF=F KetDBF=F FulRan=T
         wScrn=  0.000000 ICntrl=      3107 IOpCl=  0 I1Cent=           0 NGrid=           0
         NMat0=    1 NMatS0=      1 NMatT0=    0 NMatD0=    1 NMtDS0=    0 NMtDT0=    0
 Symmetry not used in FoFCou.
 End of G2Drv F.D. properties file   721 does not exist.
 End of G2Drv F.D. properties file   722 does not exist.
 End of G2Drv F.D. properties file   788 does not exist.
 Leave Link 1110 at Thu Nov 19 09:13:33 2020, MaxMem=   268435456 cpu:              77.8 elap:              10.1
 (Enter /afs/cad/linux/gaussian/g16_C.01/SSE4/g16/l1002.exe)
 Minotr:  Closed shell wavefunction.
          IDoAtm=111111111
          Direct CPHF calculation.
          Differentiating once with respect to nuclear coordinates.
          Requested convergence is 1.0D-08 RMS, and 1.0D-07 maximum.
          Secondary convergence is 1.0D-12 RMS, and 1.0D-12 maximum.
          NewPWx=T KeepS1=F KeepF1=F KeepIn=T MapXYZ=F SortEE=F KeepMc=T.
         2732 words used for storage of precomputed grid.
 Keep R1 ints in memory in canonical form, NReq=22914703.
 FoFCou: FMM=F IPFlag=           0 FMFlag=           0 FMFlg1=           0
         NFxFlg=           0 DoJE=F BraDBF=F KetDBF=F FulRan=T
         wScrn=  0.000000 ICntrl=       600 IOpCl=  0 I1Cent=           0 NGrid=           0
         NMat0=    1 NMatS0=   5565 NMatT0=    0 NMatD0=    1 NMtDS0=    0 NMtDT0=    0
 Symmetry not used in FoFCou.
 Two-electron integral symmetry not used.
          MDV=     268435456 using IRadAn=       1.
          Solving linear equations simultaneously, MaxMat=       0.
          There are    30 degrees of freedom in the 1st order CPHF.  IDoFFX=6 NUNeed=     0.
     24 vectors produced by pass  0 Test12= 6.09D-15 3.33D-09 XBig12= 1.22D-01 1.72D-01.
 AX will form    24 AO Fock derivatives at one time.
     24 vectors produced by pass  1 Test12= 6.09D-15 3.33D-09 XBig12= 8.39D-03 2.19D-02.
     24 vectors produced by pass  2 Test12= 6.09D-15 3.33D-09 XBig12= 4.15D-04 4.12D-03.
     24 vectors produced by pass  3 Test12= 6.09D-15 3.33D-09 XBig12= 4.35D-06 4.79D-04.
     24 vectors produced by pass  4 Test12= 6.09D-15 3.33D-09 XBig12= 1.20D-08 2.42D-05.
     20 vectors produced by pass  5 Test12= 6.09D-15 3.33D-09 XBig12= 1.35D-11 6.71D-07.
      3 vectors produced by pass  6 Test12= 6.09D-15 3.33D-09 XBig12= 1.10D-14 1.70D-08.
 InvSVY:  IOpt=1 It=  1 EMax= 1.78D-15
 Solved reduced A of dimension   143 with    24 vectors.
 End of Minotr F.D. properties file   721 does not exist.
 End of Minotr F.D. properties file   722 does not exist.
 End of Minotr F.D. properties file   788 does not exist.
 Leave Link 1002 at Thu Nov 19 09:13:42 2020, MaxMem=   268435456 cpu:              71.6 elap:               9.0
 (Enter /afs/cad/linux/gaussian/g16_C.01/SSE4/g16/l701.exe)
 ... and contract with generalized density number  0.
 Compute integral second derivatives.
 Leave Link  701 at Thu Nov 19 09:13:42 2020, MaxMem=   268435456 cpu:               1.7 elap:               0.3
 (Enter /afs/cad/linux/gaussian/g16_C.01/SSE4/g16/l702.exe)
 L702 exits ... SP integral derivatives will be done elsewhere.
 Leave Link  702 at Thu Nov 19 09:13:42 2020, MaxMem=   268435456 cpu:               0.2 elap:               0.1
 (Enter /afs/cad/linux/gaussian/g16_C.01/SSE4/g16/l703.exe)
 Integral derivatives from FoFJK, PRISM(SPDF).
 Compute integral second derivatives, UseDBF=F ICtDFT=           0.
 Calling FoFJK, ICntrl=    100127 FMM=F ISym2X=0 I1Cent= 0 IOpClX= 0 NMat=1 NMatS=1 NMatT=0.
 FoFJK:  IHMeth= 1 ICntrl=  100127 DoSepK=F KAlg= 0 I1Cent=           0 FoldK=F
 IRaf=         0 NMat=       1 IRICut=       1 DoRegI=T DoRafI=F ISym2E= 0 IDoP0=0 IntGTp=1.
 FoFCou: FMM=F IPFlag=           0 FMFlag=      100000 FMFlg1=         800
         NFxFlg=           0 DoJE=F BraDBF=F KetDBF=F FulRan=T
         wScrn=  0.000000 ICntrl=    100127 IOpCl=  0 I1Cent=           0 NGrid=           0
         NMat0=    1 NMatS0=      1 NMatT0=    0 NMatD0=    1 NMtDS0=    0 NMtDT0=    0
 Symmetry not used in FoFCou.
 Leave Link  703 at Thu Nov 19 09:14:00 2020, MaxMem=   268435456 cpu:             139.7 elap:              17.5
 (Enter /afs/cad/linux/gaussian/g16_C.01/SSE4/g16/l716.exe)
 Dipole        =-1.31382200D+00 9.56392392D-01 6.45789574D-06
 Polarizability= 0.00000000D+00 0.00000000D+00 0.00000000D+00
                 0.00000000D+00 0.00000000D+00 0.00000000D+00
 -------------------------------------------------------------------
 Center     Atomic                   Forces (Hartrees/Bohr)
 Number     Number              X              Y              Z
 -------------------------------------------------------------------
      1        6          -0.001744325    0.000147200   -0.000000407
      2       17           0.001102531    0.000045661    0.000000056
      3        1          -0.000031863    0.000083199    0.000102731
      4        1          -0.000031880    0.000083222   -0.000102624
      5        9           0.000995624   -0.000310024    0.000000083
      6        6          -0.000275161    0.000016671   -0.000000066
      7        1           0.000025379    0.000032834   -0.000006762
      8        1          -0.000065483   -0.000131384    0.000000088
      9        1           0.000025178    0.000032619    0.000006901
 -------------------------------------------------------------------
 Cartesian Forces:  Max     0.001744325 RMS     0.000451639
 Z-matrix is all fixed cartesians, so copy forces.
 Force constants in Cartesian coordinates: 
                1             2             3             4             5 
      1  0.245957D-01
      2  0.578923D-02  0.563329D+00
      3  0.000000D+00  0.000000D+00  0.705342D+00
      4  0.369549D-01  0.624680D-02  0.000000D+00  0.474609D-01
      5  0.617178D-02 -0.180912D-01  0.000000D+00  0.160181D-02  0.165812D-01
      6  0.000000D+00  0.000000D+00 -0.233032D-01  0.000000D+00  0.000000D+00
      7 -0.144157D-01  0.164734D-01  0.341692D-01 -0.214595D-01  0.499981D-02
      8  0.160331D-01 -0.138317D+00 -0.140525D+00 -0.208487D-02  0.133491D-02
      9  0.319710D-01 -0.140585D+00 -0.290715D+00 -0.318450D-02  0.176492D-02
     10 -0.144160D-01  0.164729D-01 -0.341687D-01 -0.214594D-01  0.499975D-02
     11  0.160325D-01 -0.138315D+00  0.140524D+00 -0.208481D-02  0.133488D-02
     12 -0.319704D-01  0.140584D+00 -0.290717D+00  0.318439D-02 -0.176488D-02
     13  0.292470D-01 -0.110782D-01  0.000000D+00 -0.193306D-01  0.181438D-02
     14 -0.126432D-01 -0.545233D-02  0.000000D+00  0.319799D-02  0.182556D-02
     15  0.000000D+00  0.000000D+00 -0.121469D-01  0.000000D+00  0.000000D+00
     16 -0.535949D-01 -0.156721D-01  0.000000D+00 -0.246839D-01 -0.181296D-01
     17 -0.249615D-01 -0.230225D+00  0.000000D+00 -0.378543D-02 -0.208323D-02
     18  0.000000D+00  0.000000D+00 -0.877598D-01  0.000000D+00  0.000000D+00
     19  0.375748D-03 -0.660087D-02 -0.738591D-02  0.949028D-03 -0.237181D-03
     20  0.132633D-01 -0.154649D-01 -0.308952D-01 -0.205791D-03  0.917109D-03
     21  0.961295D-03 -0.426839D-03  0.131404D-03 -0.640025D-03  0.999602D-03
     22 -0.912227D-02 -0.503055D-02  0.000000D+00  0.619647D-03 -0.983695D-03
     23 -0.329477D-01 -0.199814D-02  0.000000D+00 -0.267994D-02 -0.273633D-02
     24  0.000000D+00  0.000000D+00 -0.963391D-03  0.000000D+00  0.000000D+00
     25  0.375673D-03 -0.660067D-02  0.738604D-02  0.949035D-03 -0.237042D-03
     26  0.132624D-01 -0.154646D-01  0.308958D-01 -0.205757D-03  0.917082D-03
     27 -0.961414D-03  0.426641D-03  0.131390D-03  0.640081D-03 -0.999551D-03
                6             7             8             9            10 
      6  0.122015D-01
      7  0.960605D-02  0.407453D-01
      8  0.182880D-02 -0.174271D-01  0.140403D+00
      9  0.327019D-02 -0.322878D-01  0.147255D+00  0.292576D+00
     10 -0.960619D-02  0.412394D-02 -0.140692D-02  0.321330D-02  0.407451D-01
     11 -0.182879D-02 -0.140693D-02  0.102874D-01 -0.135137D-01 -0.174265D-01
     12  0.327018D-02 -0.321326D-02  0.135136D-01 -0.138128D-01  0.322872D-01
     13  0.000000D+00 -0.140618D-01  0.189140D-02  0.220435D-03 -0.140614D-01
     14  0.000000D+00  0.161195D-02 -0.910057D-04  0.120261D-02  0.161190D-02
     15  0.252797D-02 -0.296348D-02  0.114696D-02  0.163521D-02  0.296355D-02
     16  0.000000D+00  0.478758D-02  0.449846D-02  0.311176D-03  0.478735D-02
     17  0.000000D+00 -0.333273D-02 -0.979110D-02  0.326995D-02 -0.333270D-02
     18 -0.172045D-03 -0.661692D-02 -0.235478D-01  0.460106D-02  0.661697D-02
     19 -0.509061D-03  0.222410D-03 -0.206897D-02 -0.433844D-04 -0.144014D-03
     20  0.728058D-03 -0.170400D-02 -0.514447D-02  0.127620D-02 -0.836993D-04
     21  0.554037D-03  0.278941D-03  0.152462D-03  0.140327D-02 -0.550792D-03
     22  0.000000D+00  0.201867D-03 -0.127106D-03  0.139982D-03  0.201935D-03
     23  0.000000D+00  0.869322D-03 -0.167942D-03 -0.114831D-03  0.869307D-03
     24  0.109727D-02  0.476412D-03 -0.249075D-04  0.943779D-04 -0.476404D-03
     25  0.508997D-03 -0.144031D-03  0.692026D-03 -0.340222D-03  0.222482D-03
     26 -0.728069D-03 -0.836689D-04  0.148645D-02 -0.555144D-03 -0.170402D-02
     27  0.554059D-03  0.550787D-03  0.201560D-03  0.947218D-03 -0.278927D-03
               11            12            13            14            15 
     11  0.140401D+00
     12 -0.147254D+00  0.292578D+00
     13  0.189137D-02 -0.220448D-03  0.271175D-01
     14 -0.910234D-04 -0.120260D-02 -0.636617D-02  0.127352D-01
     15 -0.114695D-02  0.163524D-02  0.000000D+00  0.000000D+00  0.431759D-02
     16  0.449832D-02 -0.311168D-03 -0.322062D-02  0.549798D-02  0.000000D+00
     17 -0.979093D-02 -0.326981D-02  0.586229D-02 -0.840459D-02  0.000000D+00
     18  0.235481D-01  0.460090D-02  0.000000D+00  0.000000D+00  0.293223D-02
     19  0.692030D-03  0.340203D-03 -0.106242D-02  0.213669D-02 -0.978248D-03
     20  0.148642D-02  0.555169D-03  0.110532D-02 -0.370485D-03  0.528812D-03
     21 -0.201568D-03  0.947180D-03 -0.255691D-03 -0.534653D-04  0.206058D-03
     22 -0.127096D-03 -0.139955D-03 -0.356513D-02  0.281631D-02  0.000000D+00
     23 -0.167824D-03  0.114871D-03  0.377428D-02  0.219082D-03  0.000000D+00
     24  0.248956D-04  0.943856D-04  0.000000D+00  0.000000D+00 -0.131350D-02
     25 -0.206893D-02  0.433558D-04 -0.106238D-02  0.213653D-02  0.978320D-03
     26 -0.514452D-02 -0.127616D-02  0.110529D-02 -0.370433D-03 -0.528855D-03
     27 -0.152508D-03  0.140331D-02  0.255595D-03  0.535527D-04  0.206080D-03
               16            17            18            19            20 
     16  0.554671D+00
     17 -0.383445D-01  0.493620D+00
     18  0.000000D+00  0.000000D+00  0.570392D+00
     19 -0.858351D-01  0.474424D-01  0.853477D-01  0.885515D-01
     20  0.430883D-01 -0.945680D-01 -0.887080D-01 -0.480267D-01  0.105747D+00
     21  0.822549D-01 -0.915224D-01 -0.222861D+00 -0.926822D-01  0.101036D+00
     22 -0.311082D+00 -0.269857D-01 -0.419298D-05 -0.756877D-02 -0.873890D-03
     23 -0.285209D-01 -0.441911D-01  0.000000D+00  0.132252D-01  0.107792D-02
     24 -0.412549D-05  0.000000D+00 -0.488647D-01  0.267545D-01  0.419428D-02
     25 -0.858291D-01  0.474379D-01 -0.853431D-01  0.451163D-02 -0.656284D-02
     26  0.430841D-01 -0.945660D-01  0.887080D-01 -0.656257D-02  0.631933D-02
     27 -0.822504D-01  0.915226D-01 -0.222869D+00 -0.108436D-01  0.112846D-01
               21            22            23            24            25 
     21  0.239168D+00
     22 -0.210941D-03  0.337883D+00
     23  0.130130D-02  0.321855D-01  0.468865D-01
     24  0.913112D-03  0.458863D-05  0.000000D+00  0.480302D-01
     25  0.108445D-01 -0.756806D-02  0.132250D-01 -0.267551D-01  0.885448D-01
     26 -0.112852D-01 -0.873762D-03  0.107788D-02 -0.419425D-02 -0.480220D-01
     27 -0.204627D-01  0.210641D-03 -0.130079D-02  0.912185D-03  0.926772D-01
               26            27 
     26  0.105745D+00
     27 -0.101036D+00  0.239177D+00
 Leave Link  716 at Thu Nov 19 09:14:00 2020, MaxMem=   268435456 cpu:               0.3 elap:               0.1
 (Enter /afs/cad/linux/gaussian/g16_C.01/SSE4/g16/l123.exe)
 IRC-IRC-IRC-IRC-IRC-IRC-IRC-IRC-IRC-IRC-IRC-IRC-IRC-IRC-IRC-IRC-IRC-IRC
 Pt  1 Step number   1 out of a maximum of  20
 Using modified Bulirsch-Stoer corrector integration.
   Using distance weighted interpolants to fit PES.
 PreDWI: IReCr0= 2 IReCr1= 1 IReCr2= 1 IReCr3= 1
 Modified Bulirsch-Stoer Extrapolation Cycles:
    EPS =    0.000010000000000
    Cycle     1 NS=    48
      PEZero:  N= 2 I= 1 D=  3.83D-04 Err=  9.56D-04
    Cycle     2 NS=    64 Truncation Error =  0.000955668
      PEZero:  N= 3 I= 2 D=  3.83D-04 Err=  6.37D-04
      PEZero:  N= 3 I= 1 D=  7.66D-04 Err=  1.97D-08
    Cycle     3 NS=    96 Truncation Error =  0.000000020
 BS completed in    3 cycles and     208 integration steps.
 Maximum DWI energy   std dev =  0.000000226 at pt     1
 Maximum DWI gradient std dev =  0.053899357 at pt    27
 SUMMARY OF CORRECTOR INTEGRATION:
   Predictor End Point Energy =  -639.320615
   Old End Point Energy       =  -639.320615
   Corrected End Point Energy =  -639.320615
   Predictor End-Start Dist.  =     0.147079
   Old End-Start Dist.        =     0.147079
   New End-Start Dist.        =     0.147076
   New End-Old End Dist.      =     0.000965
 CORRECTOR INTEGRATION CONVERGENCE:
   Recorrection delta-x convergence threshold:    0.010000
   Delta-x Convergence Met
 Point Number:   1          Path Number:   1
                    CURRENT STRUCTURE
                Cartesian Coordinates (Ang):                
 ---------------------------------------------------------------------
 Center     Atomic                     Coordinates (Angstroms)
 Number     Number                        X           Y           Z
 ---------------------------------------------------------------------
      1          6                    0.368323   -0.128011    0.000003
      2         17                   -1.804243   -0.197074   -0.000001
      3          1                    0.494243   -0.685821   -0.911645
      4          1                    0.494240   -0.685815    0.911656
      5          9                    2.512049   -0.605499   -0.000001
      6          6                    0.645904    1.347305    0.000000
      7          1                    0.223975    1.829621    0.887554
      8          1                    1.735380    1.446629    0.000015
      9          1                    0.224002    1.829612   -0.887571
 ---------------------------------------------------------------------
   CHANGE IN THE REACTION COORDINATE =    0.14708
   NET REACTION COORDINATE UP TO THIS POINT =    0.14708
  # OF POINTS ALONG THE PATH =   1
  # OF STEPS =   1

 Calculating another point on the path.
 Point Number  2 in FORWARD path direction.
 Using LQA Reaction Path Following.
   LQA: T_Est iteration completed in    3 iterations.
 IRC-IRC-IRC-IRC-IRC-IRC-IRC-IRC-IRC-IRC-IRC-IRC-IRC-IRC-IRC-IRC-IRC-IRC
 Leave Link  123 at Thu Nov 19 09:14:00 2020, MaxMem=   268435456 cpu:               0.8 elap:               0.2
 (Enter /afs/cad/linux/gaussian/g16_C.01/SSE4/g16/l202.exe)
                          Input orientation:                          
 ---------------------------------------------------------------------
 Center     Atomic      Atomic             Coordinates (Angstroms)
 Number     Number       Type             X           Y           Z
 ---------------------------------------------------------------------
      1          6           0        0.349641   -0.125457    0.000003
      2         17           0       -1.800382   -0.196900   -0.000001
      3          1           0        0.494417   -0.683084   -0.909696
      4          1           0        0.494415   -0.683079    0.909706
      5          9           0        2.518500   -0.607530   -0.000001
      6          6           0        0.642852    1.347402    0.000000
      7          1           0        0.226256    1.834323    0.887800
      8          1           0        1.733688    1.432442    0.000012
      9          1           0        0.226278    1.834315   -0.887815
 ---------------------------------------------------------------------
                    Distance matrix (angstroms):
                    1          2          3          4          5
     1  C    0.000000
     2  Cl   2.151210   0.000000
     3  H    1.076783   2.515954   0.000000
     4  H    1.076783   2.515954   1.819402   0.000000
     5  F    2.221788   4.338359   2.220397   2.220404   0.000000
     6  C    1.501761   2.890374   2.229900   2.229899   2.709209
     7  H    2.155028   3.003552   3.104874   2.531739   3.464855
     8  H    2.083899   3.891582   2.615112   2.615104   2.185730
     9  H    2.155028   3.003565   2.531734   3.104875   3.464838
                    6          7          8          9
     6  C    0.000000
     7  H    1.094912   0.000000
     8  H    1.094146   1.795001   0.000000
     9  H    1.094912   1.775615   1.795000   0.000000
 Symmetry turned off by external request.
 Stoichiometry    C2H5ClF(1-)
 Framework group  C1[X(C2H5ClF)]
 Deg. of freedom    21
 Full point group                 C1      NOp   1
 Rotational constants (GHZ):          11.6700252           2.0440550           1.7792813
 Leave Link  202 at Thu Nov 19 09:14:00 2020, MaxMem=   268435456 cpu:               0.1 elap:               0.1
 (Enter /afs/cad/linux/gaussian/g16_C.01/SSE4/g16/l301.exe)
 Standard basis: 6-31+G(d,p) (6D, 7F)
 Ernie: Thresh=  0.10000D-02 Tol=  0.10000D-05 Strict=F.
   105 basis functions,   187 primitive gaussians,   105 cartesian basis functions
    22 alpha electrons       22 beta electrons
       nuclear repulsion energy       147.4521929036 Hartrees.
 IExCor=  402 DFT=T Ex+Corr=B3LYP ExCW=0 ScaHFX=  0.200000
 ScaDFX=  0.800000  0.720000  1.000000  0.810000 ScalE2=  1.000000  1.000000
 IRadAn=      5 IRanWt=     -1 IRanGd=            0 ICorTp=0 IEmpDi=  4
 NAtoms=    9 NActive=    9 NUniq=    9 SFac= 1.00D+00 NAtFMM=   60 NAOKFM=F Big=F
 Integral buffers will be    131072 words long.
 Raffenetti 2 integral format.
 Two-electron integral symmetry is turned off.
 Leave Link  301 at Thu Nov 19 09:14:00 2020, MaxMem=   268435456 cpu:               0.4 elap:               0.1
 (Enter /afs/cad/linux/gaussian/g16_C.01/SSE4/g16/l302.exe)
 NPDir=0 NMtPBC=     1 NCelOv=     1 NCel=       1 NClECP=     1 NCelD=      1
         NCelK=      1 NCelE2=     1 NClLst=     1 CellRange=     0.0.
 One-electron integrals computed using PRISM.
 NBasis=   105 RedAO= T EigKep=  2.40D-04  NBF=   105
 NBsUse=   105 1.00D-06 EigRej= -1.00D+00 NBFU=   105
 Precomputing XC quadrature grid using
 IXCGrd= 4 IRadAn=           5 IRanWt=          -1 IRanGd=           0 AccXCQ= 0.00D+00.
 Generated NRdTot=       0 NPtTot=           0 NUsed=           0 NTot=          32
 NSgBfM=   105   105   105   105   105 MxSgAt=     9 MxSgA2=     9.
 Leave Link  302 at Thu Nov 19 09:14:01 2020, MaxMem=   268435456 cpu:               1.6 elap:               0.2
 (Enter /afs/cad/linux/gaussian/g16_C.01/SSE4/g16/l303.exe)
 DipDrv:  MaxL=1.
 Leave Link  303 at Thu Nov 19 09:14:01 2020, MaxMem=   268435456 cpu:               0.2 elap:               0.1
 (Enter /afs/cad/linux/gaussian/g16_C.01/SSE4/g16/l401.exe)
 Initial guess from the checkpoint file:  "/home/b/buttard/SN2-E2/irc/Gau-20286.chk"
 B after Tr=    -0.000175    0.000061   -0.000000
         Rot=    1.000000   -0.000000   -0.000000    0.000045 Ang=  -0.01 deg.
 Guess basis will be translated and rotated to current coordinates.
 JPrj=2 DoOrth=T DoCkMO=T.
 Generating alternative initial guess.
 ExpMin= 4.38D-02 ExpMax= 2.52D+04 ExpMxC= 3.78D+03 IAcc=3 IRadAn=         5 AccDes= 0.00D+00
 Harris functional with IExCor=  402 and IRadAn=       5 diagonalized for initial guess.
 HarFok:  IExCor=  402 AccDes= 0.00D+00 IRadAn=         5 IDoV= 1 UseB2=F ITyADJ=14
 ICtDFT=  3500011 ScaDFX=  1.000000  1.000000  1.000000  1.000000
 FoFCou: FMM=F IPFlag=           0 FMFlag=      100000 FMFlg1=           0
         NFxFlg=           0 DoJE=T BraDBF=F KetDBF=T FulRan=T
         wScrn=  0.000000 ICntrl=       500 IOpCl=  0 I1Cent=   200000004 NGrid=           0
         NMat0=    1 NMatS0=      1 NMatT0=    0 NMatD0=    1 NMtDS0=    0 NMtDT0=    0
 Symmetry not used in FoFCou.
 Harris En= -639.432769099870    
 Leave Link  401 at Thu Nov 19 09:14:02 2020, MaxMem=   268435456 cpu:               5.4 elap:               0.7
 (Enter /afs/cad/linux/gaussian/g16_C.01/SSE4/g16/l502.exe)
 Keep R1 ints in memory in canonical form, NReq=22933992.
 FoFCou: FMM=F IPFlag=           0 FMFlag=           0 FMFlg1=           0
         NFxFlg=           0 DoJE=F BraDBF=F KetDBF=F FulRan=T
         wScrn=  0.000000 ICntrl=       600 IOpCl=  0 I1Cent=           0 NGrid=           0
         NMat0=    1 NMatS0=   5565 NMatT0=    0 NMatD0=    1 NMtDS0=    0 NMtDT0=    0
 Symmetry not used in FoFCou.
 Two-electron integral symmetry not used.
 Closed shell SCF:
 Using DIIS extrapolation, IDIIS=  1040.
 NGot=   268435456 LenX=   252923994 LenY=   252912528
 Requested convergence on RMS density matrix=1.00D-08 within 128 cycles.
 Requested convergence on MAX density matrix=1.00D-06.
 Requested convergence on             energy=1.00D-06.
 No special actions if energy rises.

 Cycle   1  Pass 1  IDiag  1:
 E= -639.320524419453    
 DIIS: error= 6.80D-04 at cycle   1 NSaved=   1.
 NSaved= 1 IEnMin= 1 EnMin= -639.320524419453     IErMin= 1 ErrMin= 6.80D-04
 ErrMax= 6.80D-04  0.00D+00 EMaxC= 1.00D-01 BMatC= 9.29D-05 BMatP= 9.29D-05
 IDIUse=3 WtCom= 9.93D-01 WtEn= 6.80D-03
 Coeff-Com:  0.100D+01
 Coeff-En:   0.100D+01
 Coeff:      0.100D+01
 Gap=     0.665 Goal=   None    Shift=    0.000
 RMSDP=2.51D-04 MaxDP=5.20D-03              OVMax= 9.79D-03

 Cycle   2  Pass 1  IDiag  1:
 E= -639.320729730776     Delta-E=       -0.000205311323 Rises=F Damp=F
 DIIS: error= 3.23D-04 at cycle   2 NSaved=   2.
 NSaved= 2 IEnMin= 2 EnMin= -639.320729730776     IErMin= 2 ErrMin= 3.23D-04
 ErrMax= 3.23D-04  0.00D+00 EMaxC= 1.00D-01 BMatC= 1.32D-05 BMatP= 9.29D-05
 IDIUse=3 WtCom= 9.97D-01 WtEn= 3.23D-03
 Coeff-Com:  0.114D+00 0.886D+00
 Coeff-En:   0.000D+00 0.100D+01
 Coeff:      0.113D+00 0.887D+00
 Gap=     0.205 Goal=   None    Shift=    0.000
 RMSDP=1.30D-04 MaxDP=2.88D-03 DE=-2.05D-04 OVMax= 3.82D-03

 Cycle   3  Pass 1  IDiag  1:
 E= -639.320721226393     Delta-E=        0.000008504383 Rises=F Damp=F
[...]
     19 -0.570722D-04  0.123779D-03  0.214247D-02 -0.222150D-03 -0.189707D-03
     20  0.670044D-03  0.674353D-03  0.563875D-02 -0.944866D-02  0.804372D-04
     21 -0.141199D-03  0.479923D-04 -0.219525D-03  0.406012D-03  0.140083D-02
     22 -0.619186D-03 -0.719359D-04  0.199265D-02 -0.952290D-03  0.366266D-03
     23  0.169349D-02  0.426455D-03  0.640841D-03  0.323900D-02  0.140704D-02
     24 -0.460226D-03  0.116436D-02  0.143168D-02 -0.103245D-03  0.172413D-03
     25  0.110150D-02 -0.931683D-04  0.172160D-02 -0.101395D-02 -0.594325D-03
     26 -0.657461D-02 -0.414546D-03  0.480634D-04  0.325022D-02 -0.175783D-02
     27  0.183846D-03  0.169961D-02 -0.162600D-02 -0.155841D-03  0.734524D-03
               16            17            18            19            20 
     16  0.574122D+00
     17  0.261163D-01  0.486940D+00
     18 -0.104825D-02  0.323190D-02  0.568692D+00
     19 -0.304976D+00  0.469862D-01  0.155006D-01  0.326495D+00
     20  0.440228D-01 -0.563554D-01 -0.252297D-02 -0.536838D-01  0.596500D-01
     21  0.150651D-01 -0.285934D-02 -0.493145D-01 -0.166659D-01  0.289679D-02
     22 -0.103904D+00 -0.566804D-01 -0.915336D-01 -0.968186D-02 -0.150375D-01
     23 -0.536326D-01 -0.991784D-01 -0.857949D-01  0.204706D-02  0.249543D-02
     24 -0.913159D-01 -0.876887D-01 -0.197745D+00  0.113869D-02  0.210144D-02
     25 -0.777683D-01 -0.344863D-01  0.778492D-01 -0.658056D-02 -0.121116D-01
     26 -0.316868D-01 -0.795658D-01  0.769094D-01  0.126958D-02  0.174340D-02
     27  0.772835D-01  0.792966D-01 -0.243973D+00 -0.107432D-03 -0.231876D-03
               21            22            23            24            25 
     21  0.504783D-01
     22 -0.247278D-01  0.106862D+00
     23  0.616683D-02  0.617458D-01  0.110076D+00
     24  0.164246D-02  0.102025D+00  0.971778D-01  0.211695D+00
     25  0.278220D-01  0.509351D-02  0.663702D-02 -0.137346D-01  0.782503D-01
     26 -0.653709D-02  0.642749D-02  0.518194D-02 -0.125765D-01  0.365649D-01
     27 -0.124758D-02  0.899850D-02  0.840635D-02 -0.200748D-01 -0.863009D-01
               26            27 
     26  0.880052D-01
     27 -0.884574D-01  0.263203D+00
 Leave Link  716 at Thu Nov 19 10:33:11 2020, MaxMem=   268435456 cpu:               0.3 elap:               0.1
 (Enter /afs/cad/linux/gaussian/g16_C.01/SSE4/g16/l123.exe)
 IRC-IRC-IRC-IRC-IRC-IRC-IRC-IRC-IRC-IRC-IRC-IRC-IRC-IRC-IRC-IRC-IRC-IRC
 Pt110 Step number   1 out of a maximum of  20
 Using modified Bulirsch-Stoer corrector integration.
   Using distance weighted interpolants to fit PES.
 PreDWI: IReCr0= 2 IReCr1= 1 IReCr2= 1 IReCr3= 1
 Modified Bulirsch-Stoer Extrapolation Cycles:
    EPS =    0.000010000000000
    Cycle     1 NS=    48
      PEZero:  N= 2 I= 1 D=  7.66D-04 Err=  1.78D-02
    Cycle     2 NS=    64 Truncation Error =  0.017770804
      PEZero:  N= 3 I= 2 D=  7.66D-04 Err=  2.55D-02
      PEZero:  N= 3 I= 1 D=  1.53D-03 Err=  2.05D-02
    Cycle     3 NS=    96 Truncation Error =  0.020467615
      PEZero:  N= 4 I= 3 D=  3.83D-04 Err=  3.88D-02
      PEZero:  N= 4 I= 2 D=  1.15D-03 Err=  2.62D-02
      PEZero:  N= 4 I= 1 D=  1.91D-03 Err=  1.91D-02
    Cycle     4 NS=   128 Truncation Error =  0.019144694
      PEZero:  N= 5 I= 4 D=  3.83D-04 Err=  3.33D-02
      PEZero:  N= 5 I= 3 D=  7.66D-04 Err=  1.12D-02
      PEZero:  N= 5 I= 2 D=  1.53D-03 Err=  1.87D-03
      PEZero:  N= 5 I= 1 D=  2.30D-03 Err=  8.26D-03
    Cycle     5 NS=   192 Truncation Error =  0.001873867
      PEZero:  N= 6 I= 5 D=  1.91D-04 Err=  9.99D-06
      PEZero:  N= 6 I= 4 D=  5.74D-04 Err=  3.33D-02
    Cycle     6 NS=   256 Truncation Error =  0.000009987
 BS completed in    6 cycles and     784 integration steps.
 Maximum DWI energy   std dev =  0.000000013 at pt    12
 Maximum DWI gradient std dev =  0.062773158 at pt   192
 SUMMARY OF CORRECTOR INTEGRATION:
   Predictor End Point Energy =  -639.368716
   Old End Point Energy       =  -639.368716
   Corrected End Point Energy =  -639.368716
   Predictor End-Start Dist.  =     0.147013
   Old End-Start Dist.        =     0.147013
   New End-Start Dist.        =     0.146972
   New End-Old End Dist.      =     0.000413
 CORRECTOR INTEGRATION CONVERGENCE:
   Recorrection delta-x convergence threshold:    0.010000
   Delta-x Convergence Met
 Point Number:  83          Path Number:   2
                    CURRENT STRUCTURE
                Cartesian Coordinates (Ang):                
 ---------------------------------------------------------------------
 Center     Atomic                     Coordinates (Angstroms)
 Number     Number                        X           Y           Z
 ---------------------------------------------------------------------
      1          6                    1.191396   -0.178757    0.054893
      2         17                   -2.280685   -0.229942    0.011840
      3          1                    0.679776   -0.696873   -0.756875
      4          1                    0.850871   -0.596997    1.003819
      5          9                    2.590375   -0.493539   -0.055616
      6          6                    0.991245    1.315769   -0.013756
      7          1                   -0.087605    1.496980    0.049267
      8          1                    1.502688    1.823239    0.812942
      9          1                    1.368742    1.717481   -0.961365
 ---------------------------------------------------------------------
   CHANGE IN THE REACTION COORDINATE =    0.14697
   NET REACTION COORDINATE UP TO THIS POINT =   12.19243
  # OF POINTS ALONG THE PATH = 110
  # OF STEPS =   1

 PES minimum detected on this side of the pathway.
    Magnitude of the gradient =      0.0001466
 Calculation of REVERSE path complete.
 Reaction path calculation complete.
 
 Energies reported relative to the TS energy of        -639.320569
 --------------------------------------------------------------------------
    Summary of reaction path following
 --------------------------------------------------------------------------
                        Energy    RxCoord
   1                   -0.04815 -12.19243
   2                   -0.04812 -12.04546
   3                   -0.04810 -11.89850
   4                   -0.04806 -11.75155
   5                   -0.04803 -11.60463
   6                   -0.04798 -11.45808
   7                   -0.04793 -11.31257
   8                   -0.04785 -11.16682
   9                   -0.04773 -11.02024
  10                   -0.04756 -10.87335
  11                   -0.04735 -10.72638
  12                   -0.04710 -10.57938
  13                   -0.04680 -10.43237
  14                   -0.04648 -10.28535
  15                   -0.04612 -10.13833
  16                   -0.04574  -9.99131
  17                   -0.04535  -9.84428
  18                   -0.04494  -9.69726
  19                   -0.04454  -9.55024
  20                   -0.04415  -9.40321
  21                   -0.04377  -9.25619
  22                   -0.04341  -9.10917
  23                   -0.04308  -8.96215
  24                   -0.04278  -8.81513
  25                   -0.04252  -8.66812
  26                   -0.04230  -8.52112
  27                   -0.04213  -8.37415
  28                   -0.04201  -8.22737
  29                   -0.04192  -8.08162
  30                   -0.04187  -7.93744
  31                   -0.04181  -7.79111
  32                   -0.04174  -7.64414
  33                   -0.04167  -7.49710
  34                   -0.04158  -7.35004
  35                   -0.04148  -7.20299
  36                   -0.04137  -7.05594
  37                   -0.04124  -6.90888
  38                   -0.04110  -6.76183
  39                   -0.04095  -6.61478
  40                   -0.04078  -6.46773
  41                   -0.04059  -6.32067
  42                   -0.04039  -6.17362
  43                   -0.04017  -6.02657
  44                   -0.03993  -5.87952
  45                   -0.03966  -5.73246
  46                   -0.03938  -5.58541
  47                   -0.03907  -5.43836
  48                   -0.03874  -5.29131
  49                   -0.03838  -5.14426
  50                   -0.03800  -4.99720
  51                   -0.03759  -4.85015
  52                   -0.03714  -4.70310
  53                   -0.03667  -4.55605
  54                   -0.03617  -4.40903
  55                   -0.03562  -4.26214
  56                   -0.03502  -4.11564
  57                   -0.03431  -3.96944
  58                   -0.03341  -3.82289
  59                   -0.03226  -3.67604
  60                   -0.03087  -3.52906
  61                   -0.02928  -3.38203
  62                   -0.02752  -3.23500
  63                   -0.02564  -3.08795
  64                   -0.02369  -2.94090
  65                   -0.02169  -2.79386
  66                   -0.01968  -2.64681
  67                   -0.01770  -2.49976
  68                   -0.01576  -2.35271
  69                   -0.01388  -2.20567
  70                   -0.01209  -2.05862
  71                   -0.01040  -1.91157
  72                   -0.00881  -1.76453
  73                   -0.00735  -1.61748
  74                   -0.00602  -1.47043
  75                   -0.00482  -1.32339
  76                   -0.00375  -1.17635
  77                   -0.00283  -1.02930
  78                   -0.00204  -0.88226
  79                   -0.00139  -0.73522
  80                   -0.00087  -0.58817
  81                   -0.00048  -0.44114
  82                   -0.00021  -0.29410
  83                   -0.00005  -0.14708
  84                    0.00000   0.00000
  85                   -0.00005   0.14708
  86                   -0.00018   0.29410
  87                   -0.00039   0.44114
  88                   -0.00066   0.58818
  89                   -0.00098   0.73522
  90                   -0.00133   0.88227
  91                   -0.00170   1.02931
  92                   -0.00208   1.17635
  93                   -0.00245   1.32338
  94                   -0.00279   1.47039
  95                   -0.00309   1.61735
  96                   -0.00334   1.76419
  97                   -0.00355   1.91085
  98                   -0.00371   2.05744
  99                   -0.00383   2.20418
 100                   -0.00393   2.35101
 101                   -0.00401   2.49779
 102                   -0.00408   2.64454
 103                   -0.00413   2.79135
 104                   -0.00418   2.93827
 105                   -0.00422   3.08528
 106                   -0.00426   3.23232
 107                   -0.00429   3.37937
 108                   -0.00432   3.52643
 109                   -0.00435   3.67348
 110                   -0.00437   3.82053
 111                   -0.00439   3.96758
 --------------------------------------------------------------------------
 
 Total number of points:                  110
 Total number of gradient calculations:   111
 Total number of Hessian calculations:    111
 IRC-IRC-IRC-IRC-IRC-IRC-IRC-IRC-IRC-IRC-IRC-IRC-IRC-IRC-IRC-IRC-IRC-IRC
 Leave Link  123 at Thu Nov 19 10:33:11 2020, MaxMem=   268435456 cpu:               1.6 elap:               0.3
 (Enter /afs/cad/linux/gaussian/g16_C.01/SSE4/g16/l202.exe)
                          Input orientation:                          
 ---------------------------------------------------------------------
 Center     Atomic      Atomic             Coordinates (Angstroms)
 Number     Number       Type             X           Y           Z
 ---------------------------------------------------------------------
      1          6           0        1.191371   -0.178773    0.054897
      2         17           0       -2.280687   -0.229940    0.011840
      3          1           0        0.679725   -0.696944   -0.756901
      4          1           0        0.850809   -0.596992    1.003863
      5          9           0        2.590403   -0.493538   -0.055622
      6          6           0        0.991241    1.315779   -0.013752
      7          1           0       -0.087639    1.496980    0.049279
      8          1           0        1.502704    1.823289    0.812966
      9          1           0        1.368771    1.717474   -0.961395
 ---------------------------------------------------------------------
                    Distance matrix (angstroms):
                    1          2          3          4          5
     1  C    0.000000
     2  Cl   3.472702   0.000000
     3  H    1.090550   3.094042   0.000000
     4  H    1.091524   3.305314   1.771877   0.000000
     5  F    1.438256   4.878683   2.045448   2.039460   0.000000
     6  C    1.509453   3.618759   2.168033   2.171164   2.415098
     7  H    2.108091   2.791615   2.460097   2.485283   3.338423
     8  H    2.163296   4.378539   3.081129   2.513796   2.702817
     9  H    2.158720   4.249488   2.519131   3.080142   2.683540
                    6          7          8          9
     6  C    0.000000
     7  H    1.095805   0.000000
     8  H    1.096643   1.794126   0.000000
     9  H    1.096319   1.786396   1.782553   0.000000
 Symmetry turned off by external request.
 Stoichiometry    C2H5ClF(1-)
 Framework group  C1[X(C2H5ClF)]
 Deg. of freedom    21
 Full point group                 C1      NOp   1
 Rotational constants (GHZ):          12.6559274           1.4553123           1.3276615
 Leave Link  202 at Thu Nov 19 10:33:11 2020, MaxMem=   268435456 cpu:               0.1 elap:               0.1
 (Enter /afs/cad/linux/gaussian/g16_C.01/SSE4/g16/l601.exe)
 Copying SCF densities to generalized density rwf, IOpCl= 0 IROHF=0.

 **********************************************************************

            Population analysis using the SCF Density.

 **********************************************************************

 Alpha  occ. eigenvalues -- -101.25039 -24.55809 -10.12302 -10.05144  -9.16386
 Alpha  occ. eigenvalues --   -6.92167  -6.92164  -6.92161  -1.04626  -0.62958
 Alpha  occ. eigenvalues --   -0.50188  -0.49342  -0.35659  -0.35591  -0.31328
 Alpha  occ. eigenvalues --   -0.26711  -0.25600  -0.21130  -0.20309  -0.04863
 Alpha  occ. eigenvalues --   -0.04791  -0.04769
 Alpha virt. eigenvalues --    0.12923   0.14108   0.16892   0.17972   0.19502
 Alpha virt. eigenvalues --    0.19898   0.20470   0.23104   0.24533   0.25990
 Alpha virt. eigenvalues --    0.26361   0.28250   0.28422   0.31969   0.35439
 Alpha virt. eigenvalues --    0.35926   0.38783   0.41106   0.42555   0.42599
 Alpha virt. eigenvalues --    0.44347   0.47035   0.50792   0.72866   0.75269
 Alpha virt. eigenvalues --    0.76575   0.82474   0.83237   0.84712   0.85108
 Alpha virt. eigenvalues --    0.86068   0.86805   1.00222   1.03492   1.06824
 Alpha virt. eigenvalues --    1.09254   1.15651   1.15736   1.15898   1.16680
 Alpha virt. eigenvalues --    1.17142   1.19551   1.26917   1.29760   1.42292
 Alpha virt. eigenvalues --    1.42820   1.61555   1.69219   1.72312   1.77227
 Alpha virt. eigenvalues --    1.78447   1.85556   1.95466   1.95769   2.06657
 Alpha virt. eigenvalues --    2.13105   2.13861   2.16834   2.18221   2.20518
 Alpha virt. eigenvalues --    2.23328   2.25343   2.36788   2.39955   2.48377
 Alpha virt. eigenvalues --    2.61308   2.62195   2.80710   2.88196   2.88692
 Alpha virt. eigenvalues --    2.94540   3.01355   3.01816   3.22078   3.37640
 Alpha virt. eigenvalues --    3.46009   3.52282   3.61954   3.64977   4.49810
 Alpha virt. eigenvalues --    4.55993   4.75279   5.47354
          Condensed to atoms (all electrons):
               1          2          3          4          5          6
     1  C    4.870580   0.042105   0.429375   0.419425   0.059922   0.278697
     2  Cl   0.042105  17.986558  -0.002747  -0.003776   0.002968  -0.080077
     3  H    0.429375  -0.002747   0.539357  -0.034616  -0.048397  -0.050522
     4  H    0.419425  -0.003776  -0.034616   0.568193  -0.051247  -0.044774
     5  F    0.059922   0.002968  -0.048397  -0.051247   9.473841  -0.059408
     6  C    0.278697  -0.080077  -0.050522  -0.044774  -0.059408   5.241731
     7  H   -0.042864   0.011999  -0.001339  -0.000939   0.006051   0.397920
     8  H   -0.031729   0.001918   0.004542  -0.006874  -0.002667   0.384557
     9  H   -0.031143   0.001548  -0.006318   0.004654  -0.002970   0.386547
               7          8          9
     1  C   -0.042864  -0.031729  -0.031143
     2  Cl   0.011999   0.001918   0.001548
     3  H   -0.001339   0.004542  -0.006318
     4  H   -0.000939  -0.006874   0.004654
     5  F    0.006051  -0.002667  -0.002970
     6  C    0.397920   0.384557   0.386547
     7  H    0.450417  -0.022795  -0.021681
     8  H   -0.022795   0.589839  -0.036347
     9  H   -0.021681  -0.036347   0.581488
 Mulliken charges:
               1
     1  C    0.005632
     2  Cl  -0.960497
     3  H    0.170664
     4  H    0.149954
     5  F   -0.378094
     6  C   -0.454671
     7  H    0.223232
     8  H    0.119556
     9  H    0.124223
 Sum of Mulliken charges =  -1.00000
 Mulliken charges with hydrogens summed into heavy atoms:
               1
     1  C    0.326251
     2  Cl  -0.960497
     5  F   -0.378094
     6  C    0.012340
 APT charges:
               1
     1  C   -0.212423
     2  Cl  -0.967158
     3  H    0.266020
     4  H    0.293477
     5  F   -0.413843
     6  C   -1.030304
     7  H    0.234010
     8  H    0.426545
     9  H    0.403676
 Sum of APT charges =  -1.00000
 APT charges with hydrogens summed into heavy atoms:
               1
     1  C    0.347074
     2  Cl  -0.967158
     5  F   -0.413843
     6  C    0.033927
 Electronic spatial extent (au):  <R**2>=            804.0949
 Charge=             -1.0000 electrons
 Dipole moment (field-independent basis, Debye):
    X=              7.3561    Y=              1.5133    Z=              0.0905  Tot=              7.5107
 Quadrupole moment (field-independent basis, Debye-Ang):
   XX=            -72.0420   YY=            -37.6150   ZZ=            -36.2146
   XY=             -1.0846   XZ=              0.5097   YZ=             -0.0207
 Traceless Quadrupole moment (field-independent basis, Debye-Ang):
   XX=            -23.4181   YY=             11.0089   ZZ=             12.4092
   XY=             -1.0846   XZ=              0.5097   YZ=             -0.0207
 Octapole moment (field-independent basis, Debye-Ang**2):
  XXX=             57.7961  YYY=             -8.9122  ZZZ=             -0.6054  XYY=              9.6053
  XXY=              8.2852  XXZ=              0.3546  XZZ=             11.9707  YZZ=             -2.8492
  YYZ=             -0.2389  XYZ=             -0.2197
 Hexadecapole moment (field-independent basis, Debye-Ang**3):
 XXXX=          -1118.4614 YYYY=           -172.3843 ZZZZ=            -65.1829 XXXY=            -33.8049
 XXXZ=              5.1372 YYYX=            -36.7533 YYYZ=              0.8076 ZZZX=              2.5507
 ZZZY=              0.2088 XXYY=           -185.1092 XXZZ=           -162.6813 YYZZ=            -38.0951
 XXYZ=              0.0911 YYXZ=              0.9968 ZZXY=            -11.0083
 N-N= 1.382848139663D+02 E-N=-1.800496902110D+03  KE= 6.362980187313D+02
  Exact polarizability:       0.000       0.000       0.000       0.000       0.000       0.000
 Approx polarizability:      66.252       2.204      55.854      -0.097      -0.238      52.806
 No NMR shielding tensors so no spin-rotation constants.
 Leave Link  601 at Thu Nov 19 10:33:11 2020, MaxMem=   268435456 cpu:               1.2 elap:               0.2
 (Enter /afs/cad/linux/gaussian/g16_C.01/SSE4/g16/l9999.exe)

 This type of calculation cannot be archived.


 MICHAEL FARADAY, ASKED BY A POLITICIAN WHAT GOOD
 HIS ELECTRICAL DISCOVERIES WERE, REPLIED 
 "AT PRESENT I DO NOT KNOW, BUT ONE DAY YOU WILL BE
 ABLE TO TAX THEM."
 Job cpu time:       0 days 10 hours 20 minutes 27.0 seconds.
 Elapsed time:       0 days  1 hours 19 minutes 43.5 seconds.
 File lengths (MBytes):  RWF=     20 Int=      0 D2E=      0 Chk=      3 Scr=      1
 Normal termination of Gaussian 16 at Thu Nov 19 10:33:11 2020.
