 Entering Gaussian System, Link 0=g16
 Input=ts_sn2.com
 Output=ts_sn2.log
 Initial command:
 /afs/cad/linux/gaussian/g16_C.01/SSE4/g16/l1.exe "/home/b/buttard/SN2-E2/Gau-27046.inp" -scrdir="/home/b/buttard/SN2-E2/"
 Entering Link 1 = /afs/cad/linux/gaussian/g16_C.01/SSE4/g16/l1.exe PID=     27047.
  
 Copyright (c) 1988-2019, Gaussian, Inc.  All Rights Reserved.
  
 This is part of the Gaussian(R) 16 program.  It is based on
 the Gaussian(R) 09 system (copyright 2009, Gaussian, Inc.),
 the Gaussian(R) 03 system (copyright 2003, Gaussian, Inc.),
 the Gaussian(R) 98 system (copyright 1998, Gaussian, Inc.),
 the Gaussian(R) 94 system (copyright 1995, Gaussian, Inc.),
 the Gaussian 92(TM) system (copyright 1992, Gaussian, Inc.),
 the Gaussian 90(TM) system (copyright 1990, Gaussian, Inc.),
 the Gaussian 88(TM) system (copyright 1988, Gaussian, Inc.),
 the Gaussian 86(TM) system (copyright 1986, Carnegie Mellon
 University), and the Gaussian 82(TM) system (copyright 1983,
 Carnegie Mellon University). Gaussian is a federally registered
 trademark of Gaussian, Inc.
  
 This software contains proprietary and confidential information,
 including trade secrets, belonging to Gaussian, Inc.
  
 This software is provided under written license and may be
 used, copied, transmitted, or stored only in accord with that
 written license.
  
 The following legend is applicable only to US Government
 contracts under FAR:
  
                    RESTRICTED RIGHTS LEGEND
  
 Use, reproduction and disclosure by the US Government is
 subject to restrictions as set forth in subparagraphs (a)
 and (c) of the Commercial Computer Software - Restricted
 Rights clause in FAR 52.227-19.
  
 Gaussian, Inc.
 340 Quinnipiac St., Bldg. 40, Wallingford CT 06492
  
  
 ---------------------------------------------------------------
 Warning -- This program may not be used in any manner that
 competes with the business of Gaussian, Inc. or will provide
 assistance to any competitor of Gaussian, Inc.  The licensee
 of this program is prohibited from giving any competitor of
 Gaussian, Inc. access to this program.  By using this program,
 the user acknowledges that Gaussian, Inc. is engaged in the
 business of creating and licensing software in the field of
 computational chemistry and represents and warrants to the
 licensee that it is not a competitor of Gaussian, Inc. and that
 it will not use this program in any manner prohibited above.
 ---------------------------------------------------------------
  

 Cite this work as:
 Gaussian 16, Revision C.01,
 M. J. Frisch, G. W. Trucks, H. B. Schlegel, G. E. Scuseria, 
 M. A. Robb, J. R. Cheeseman, G. Scalmani, V. Barone, 
 G. A. Petersson, H. Nakatsuji, X. Li, M. Caricato, A. V. Marenich, 
 J. Bloino, B. G. Janesko, R. Gomperts, B. Mennucci, H. P. Hratchian, 
 J. V. Ortiz, A. F. Izmaylov, J. L. Sonnenberg, D. Williams-Young, 
 F. Ding, F. Lipparini, F. Egidi, J. Goings, B. Peng, A. Petrone, 
 T. Henderson, D. Ranasinghe, V. G. Zakrzewski, J. Gao, N. Rega, 
 G. Zheng, W. Liang, M. Hada, M. Ehara, K. Toyota, R. Fukuda, 
 J. Hasegawa, M. Ishida, T. Nakajima, Y. Honda, O. Kitao, H. Nakai, 
 T. Vreven, K. Throssell, J. A. Montgomery, Jr., J. E. Peralta, 
 F. Ogliaro, M. J. Bearpark, J. J. Heyd, E. N. Brothers, K. N. Kudin, 
 V. N. Staroverov, T. A. Keith, R. Kobayashi, J. Normand, 
 K. Raghavachari, A. P. Rendell, J. C. Burant, S. S. Iyengar, 
 J. Tomasi, M. Cossi, J. M. Millam, M. Klene, C. Adamo, R. Cammi, 
 J. W. Ochterski, R. L. Martin, K. Morokuma, O. Farkas, 
 J. B. Foresman, and D. J. Fox, Gaussian, Inc., Wallingford CT, 2019.
 
 ******************************************
 Gaussian 16:  ES64L-G16RevC.01  3-Jul-2019
                28-Oct-2020 
 ******************************************
 %mem=2GB
 %nprocshared=8
 Will use up to    8 processors via shared memory.
 %nosave
 -------------------------------------------------------------
 #P B3LYP/6-31+G(d,p) opt=(ts,calcfc,noeigentest) freq=noraman
 -------------------------------------------------------------
 1/5=1,10=4,11=1,18=20,26=3,38=1/1,3;
 2/9=110,12=2,17=6,18=5,40=1/2;
 3/5=1,6=6,7=111,11=2,25=1,30=1,71=2,74=-5,140=1/1,2,3;
 4//1;
 5/5=2,38=5/2;
 8/6=4,10=90,11=11/1;
 11/6=1,8=1,9=11,15=111,16=1/1,2,10;
 10/6=1,13=1/2;
 6/7=2,8=2,9=2,10=2,28=1/1;
 7/10=1,25=1/1,2,3,16;
 1/5=1,10=4,11=1,18=20,26=3/3(2);
 2/9=110/2;
 99//99;
 2/9=110/2;
 3/5=1,6=6,7=111,11=2,25=1,30=1,71=1,74=-5/1,2,3;
 4/5=5,16=3,69=1/1;
 5/5=2,38=5/2;
 7//1,2,3,16;
 1/5=1,11=1,18=20,26=3/3(-5);
 2/9=110/2;
 6/7=2,8=2,9=2,10=2,19=2,28=1/1;
 99/9=1/99;
 Leave Link    1 at Wed Oct 28 18:07:58 2020, MaxMem=   268435456 cpu:               1.0 elap:               0.2
 (Enter /afs/cad/linux/gaussian/g16_C.01/SSE4/g16/l101.exe)
 ----------------------------------------------
 opt=(ts,calcfc,noeigenest) freq=noraman ts_sn2
 ----------------------------------------------
 Symbolic Z-matrix:
 Charge = -1 Multiplicity = 1
 C                     0.00383   0.00018   0.0202 
 Cl                    2.16699  -0.00065  -0.42724 
 H                    -0.16907  -0.91606  -0.51533 
 H                    -0.16833   0.91644  -0.51552 
 F                    -2.13501   0.0008   -0.13236 
 C                     0.00357   0.00028   1.52061 
 H                     0.50666   0.88662   1.91911 
 H                    -1.04214  -0.00009   1.84076 
 H                     0.5073   -0.88566   1.91919 
 
 Add virtual bond connecting atoms F5         and C1         Dist= 4.05D+00.
 Add virtual bond connecting atoms F5         and H3         Dist= 4.16D+00.
 Add virtual bond connecting atoms F5         and H4         Dist= 4.16D+00.
 Add virtual bond connecting atoms F5         and H8         Dist= 4.26D+00.
 Add virtual bond connecting atoms Cl2        and C1         Dist= 4.17D+00.
 ITRead=  0  0  0  0  0  0  0  0  0
 MicOpt= -1 -1 -1 -1 -1 -1 -1 -1 -1
 NAtoms=      9 NQM=        9 NQMF=       0 NMMI=      0 NMMIF=      0
                NMic=       0 NMicF=      0.
                    Isotopes and Nuclear Properties:
 (Nuclear quadrupole moments (NQMom) in fm**2, nuclear magnetic moments (NMagM)
  in nuclear magnetons)

  Atom         1           2           3           4           5           6           7           8           9
 IAtWgt=          12          35           1           1          19          12           1           1           1
 AtmWgt=  12.0000000  34.9688527   1.0078250   1.0078250  18.9984033  12.0000000   1.0078250   1.0078250   1.0078250
 NucSpn=           0           3           1           1           1           0           1           1           1
 AtZEff=  -0.0000000  -0.0000000  -0.0000000  -0.0000000  -0.0000000  -0.0000000  -0.0000000  -0.0000000  -0.0000000
 NQMom=    0.0000000  -8.1650000   0.0000000   0.0000000   0.0000000   0.0000000   0.0000000   0.0000000   0.0000000
 NMagM=    0.0000000   0.8218740   2.7928460   2.7928460   2.6288670   0.0000000   2.7928460   2.7928460   2.7928460
 AtZNuc=   6.0000000  17.0000000   1.0000000   1.0000000   9.0000000   6.0000000   1.0000000   1.0000000   1.0000000
 Leave Link  101 at Wed Oct 28 18:07:58 2020, MaxMem=   268435456 cpu:               2.0 elap:               0.3
 (Enter /afs/cad/linux/gaussian/g16_C.01/SSE4/g16/l103.exe)

 GradGradGradGradGradGradGradGradGradGradGradGradGradGradGradGradGradGrad
 Berny optimization.
 Initialization pass.
                           ----------------------------
                           !    Initial Parameters    !
                           ! (Angstroms and Degrees)  !
 --------------------------                            --------------------------
 ! Name  Definition              Value          Derivative Info.                !
 --------------------------------------------------------------------------------
 ! R1    R(1,2)                  2.209          calculate D2E/DX2 analytically  !
 ! R2    R(1,3)                  1.0753         calculate D2E/DX2 analytically  !
 ! R3    R(1,4)                  1.0753         calculate D2E/DX2 analytically  !
 ! R4    R(1,5)                  2.1443         calculate D2E/DX2 analytically  !
 ! R5    R(1,6)                  1.5004         calculate D2E/DX2 analytically  !
 ! R6    R(3,5)                  2.2028         calculate D2E/DX2 analytically  !
 ! R7    R(4,5)                  2.203          calculate D2E/DX2 analytically  !
 ! R8    R(5,8)                  2.2556         calculate D2E/DX2 analytically  !
 ! R9    R(6,7)                  1.0943         calculate D2E/DX2 analytically  !
 ! R10   R(6,8)                  1.0936         calculate D2E/DX2 analytically  !
 ! R11   R(6,9)                  1.0943         calculate D2E/DX2 analytically  !
 ! A1    A(2,1,3)               93.2255         calculate D2E/DX2 analytically  !
 ! A2    A(2,1,4)               93.2207         calculate D2E/DX2 analytically  !
 ! A3    A(2,1,5)              164.2334         calculate D2E/DX2 analytically  !
 ! A4    A(2,1,6)              101.6967         calculate D2E/DX2 analytically  !
 ! A5    A(3,1,4)              116.8869         calculate D2E/DX2 analytically  !
 ! A6    A(3,1,6)              119.8727         calculate D2E/DX2 analytically  !
 ! A7    A(4,1,6)              119.8771         calculate D2E/DX2 analytically  !
 ! A8    A(5,1,6)               94.0699         calculate D2E/DX2 analytically  !
 ! A9    A(1,5,8)               56.9389         calculate D2E/DX2 analytically  !
 ! A10   A(3,5,4)               49.1565         calculate D2E/DX2 analytically  !
 ! A11   A(3,5,8)               73.7096         calculate D2E/DX2 analytically  !
 ! A12   A(4,5,8)               73.7254         calculate D2E/DX2 analytically  !
 ! A13   A(1,6,7)              111.3545         calculate D2E/DX2 analytically  !
 ! A14   A(1,6,8)              107.0325         calculate D2E/DX2 analytically  !
 ! A15   A(1,6,9)              111.3521         calculate D2E/DX2 analytically  !
 ! A16   A(7,6,8)              109.4667         calculate D2E/DX2 analytically  !
 ! A17   A(7,6,9)              108.1474         calculate D2E/DX2 analytically  !
 ! A18   A(8,6,9)              109.4668         calculate D2E/DX2 analytically  !
 ! A19   A(5,8,6)              101.9587         calculate D2E/DX2 analytically  !
 ! D1    D(2,1,5,8)            179.9646         calculate D2E/DX2 analytically  !
 ! D2    D(6,1,5,8)             -0.0211         calculate D2E/DX2 analytically  !
 ! D3    D(2,1,6,7)             60.4372         calculate D2E/DX2 analytically  !
 ! D4    D(2,1,6,8)           -179.9579         calculate D2E/DX2 analytically  !
 ! D5    D(2,1,6,9)            -60.3542         calculate D2E/DX2 analytically  !
 ! D6    D(3,1,6,7)            161.1088         calculate D2E/DX2 analytically  !
 ! D7    D(3,1,6,8)            -79.2862         calculate D2E/DX2 analytically  !
 ! D8    D(3,1,6,9)             40.3174         calculate D2E/DX2 analytically  !
 ! D9    D(4,1,6,7)            -40.23           calculate D2E/DX2 analytically  !
 ! D10   D(4,1,6,8)             79.3749         calculate D2E/DX2 analytically  !
 ! D11   D(4,1,6,9)           -161.0215         calculate D2E/DX2 analytically  !
 ! D12   D(5,1,6,7)           -119.5668         calculate D2E/DX2 analytically  !
 ! D13   D(5,1,6,8)              0.0381         calculate D2E/DX2 analytically  !
 ! D14   D(5,1,6,9)            119.6418         calculate D2E/DX2 analytically  !
 ! D15   D(1,5,8,6)              0.0295         calculate D2E/DX2 analytically  !
 ! D16   D(3,5,8,6)             25.7158         calculate D2E/DX2 analytically  !
 ! D17   D(4,5,8,6)            -25.6405         calculate D2E/DX2 analytically  !
 ! D18   D(1,6,8,5)             -0.037          calculate D2E/DX2 analytically  !
 ! D19   D(7,6,8,5)            120.7745         calculate D2E/DX2 analytically  !
 ! D20   D(9,6,8,5)           -120.8457         calculate D2E/DX2 analytically  !
 --------------------------------------------------------------------------------
 Trust Radius=3.00D-01 FncErr=1.00D-07 GrdErr=1.00D-06 EigMax=2.50D+02 EigMin=1.00D-04
 Number of steps in this run=     60 maximum allowed number of steps=    100.
 Search for a saddle point of order  1.
 GradGradGradGradGradGradGradGradGradGradGradGradGradGradGradGradGradGrad

 Leave Link  103 at Wed Oct 28 18:07:58 2020, MaxMem=   268435456 cpu:               0.4 elap:               0.1
 (Enter /afs/cad/linux/gaussian/g16_C.01/SSE4/g16/l202.exe)
                          Input orientation:                          
 ---------------------------------------------------------------------
 Center     Atomic      Atomic             Coordinates (Angstroms)
 Number     Number       Type             X           Y           Z
 ---------------------------------------------------------------------
      1          6           0        0.003829    0.000176    0.020199
      2         17           0        2.166988   -0.000646   -0.427244
      3          1           0       -0.169073   -0.916064   -0.515327
      4          1           0       -0.168325    0.916443   -0.515524
      5          9           0       -2.135012    0.000800   -0.132362
      6          6           0        0.003566    0.000279    1.520610
      7          1           0        0.506659    0.886618    1.919114
      8          1           0       -1.042138   -0.000085    1.840763
      9          1           0        0.507303   -0.885660    1.919194
 ---------------------------------------------------------------------
                    Distance matrix (angstroms):
                    1          2          3          4          5
     1  C    0.000000
     2  Cl   2.208951   0.000000
     3  H    1.075258   2.510564   0.000000
     4  H    1.075259   2.510484   1.832507   0.000000
     5  F    2.144275   4.312095   2.202775   2.202969   0.000000
     6  C    1.500411   2.911105   2.239314   2.239363   2.702930
     7  H    2.155109   3.008210   3.103672   2.526649   3.460008
     8  H    2.099643   3.929675   2.674401   2.675007   2.255570
     9  H    2.155081   3.007254   2.526915   3.103530   3.460711
                    6          7          8          9
     6  C    0.000000
     7  H    1.094306   0.000000
     8  H    1.093616   1.786380   0.000000
     9  H    1.094307   1.772278   1.786382   0.000000
 Stoichiometry    C2H5ClF(1-)
 Framework group  C1[X(C2H5ClF)]
 Deg. of freedom    21
 Full point group                 C1      NOp   1
 Largest Abelian subgroup         C1      NOp   1
 Largest concise Abelian subgroup C1      NOp   1
                         Standard orientation:                         
 ---------------------------------------------------------------------
 Center     Atomic      Atomic             Coordinates (Angstroms)
 Number     Number       Type             X           Y           Z
 ---------------------------------------------------------------------
      1          6           0        0.375492   -0.170724    0.000051
      2         17           0       -1.831876   -0.254302   -0.000011
      3          1           0        0.457144   -0.727512   -0.916191
      4          1           0        0.457002   -0.727497    0.916316
      5          9           0        2.459660   -0.674869   -0.000015
      6          6           0        0.623863    1.308987   -0.000001
      7          1           0        0.193898    1.785239    0.886463
      8          1           0        1.708112    1.451812   -0.000743
      9          1           0        0.192669    1.785341   -0.885814
 ---------------------------------------------------------------------
 Rotational constants (GHZ):          11.3814643           2.0596681           1.7843859
 Leave Link  202 at Wed Oct 28 18:07:58 2020, MaxMem=   268435456 cpu:               0.6 elap:               0.1
 (Enter /afs/cad/linux/gaussian/g16_C.01/SSE4/g16/l301.exe)
 Standard basis: 6-31+G(d,p) (6D, 7F)
 Ernie: Thresh=  0.10000D-02 Tol=  0.10000D-05 Strict=F.
 There are   105 symmetry adapted cartesian basis functions of A   symmetry.
 There are   105 symmetry adapted basis functions of A   symmetry.
   105 basis functions,   187 primitive gaussians,   105 cartesian basis functions
    22 alpha electrons       22 beta electrons
       nuclear repulsion energy       147.2155609690 Hartrees.
 IExCor=  402 DFT=T Ex+Corr=B3LYP ExCW=0 ScaHFX=  0.200000
 ScaDFX=  0.800000  0.720000  1.000000  0.810000 ScalE2=  1.000000  1.000000
 IRadAn=      5 IRanWt=     -1 IRanGd=            0 ICorTp=0 IEmpDi=  4
 NAtoms=    9 NActive=    9 NUniq=    9 SFac= 1.00D+00 NAtFMM=   60 NAOKFM=F Big=F
 Integral buffers will be    131072 words long.
 Raffenetti 2 integral format.
 Two-electron integral symmetry is turned on.
 Leave Link  301 at Wed Oct 28 18:07:58 2020, MaxMem=   268435456 cpu:               1.0 elap:               0.2
 (Enter /afs/cad/linux/gaussian/g16_C.01/SSE4/g16/l302.exe)
 NPDir=0 NMtPBC=     1 NCelOv=     1 NCel=       1 NClECP=     1 NCelD=      1
         NCelK=      1 NCelE2=     1 NClLst=     1 CellRange=     0.0.
 One-electron integrals computed using PRISM.
 One-electron integral symmetry used in STVInt
 NBasis=   105 RedAO= T EigKep=  2.37D-04  NBF=   105
 NBsUse=   105 1.00D-06 EigRej= -1.00D+00 NBFU=   105
 Precomputing XC quadrature grid using
 IXCGrd= 4 IRadAn=           5 IRanWt=          -1 IRanGd=           0 AccXCQ= 0.00D+00.
 Generated NRdTot=       0 NPtTot=           0 NUsed=           0 NTot=          32
 NSgBfM=   105   105   105   105   105 MxSgAt=     9 MxSgA2=     9.
 Leave Link  302 at Wed Oct 28 18:07:59 2020, MaxMem=   268435456 cpu:               4.0 elap:               0.6
 (Enter /afs/cad/linux/gaussian/g16_C.01/SSE4/g16/l303.exe)
 DipDrv:  MaxL=1.
 Leave Link  303 at Wed Oct 28 18:07:59 2020, MaxMem=   268435456 cpu:               1.0 elap:               0.2
 (Enter /afs/cad/linux/gaussian/g16_C.01/SSE4/g16/l401.exe)
 ExpMin= 4.38D-02 ExpMax= 2.52D+04 ExpMxC= 3.78D+03 IAcc=3 IRadAn=         5 AccDes= 0.00D+00
 Harris functional with IExCor=  402 and IRadAn=       5 diagonalized for initial guess.
 HarFok:  IExCor=  402 AccDes= 0.00D+00 IRadAn=         5 IDoV= 1 UseB2=F ITyADJ=14
 ICtDFT=  3500011 ScaDFX=  1.000000  1.000000  1.000000  1.000000
 FoFCou: FMM=F IPFlag=           0 FMFlag=      100000 FMFlg1=           0
         NFxFlg=           0 DoJE=T BraDBF=F KetDBF=T FulRan=T
         wScrn=  0.000000 ICntrl=       500 IOpCl=  0 I1Cent=   200000004 NGrid=           0
         NMat0=    1 NMatS0=      1 NMatT0=    0 NMatD0=    1 NMtDS0=    0 NMtDT0=    0
 Petite list used in FoFCou.
 Harris En= -639.424598197371    
 JPrj=0 DoOrth=F DoCkMO=F.
 Leave Link  401 at Wed Oct 28 18:08:00 2020, MaxMem=   268435456 cpu:               6.9 elap:               1.2
 (Enter /afs/cad/linux/gaussian/g16_C.01/SSE4/g16/l502.exe)
 Keep R1 ints in memory in canonical form, NReq=22934256.
 FoFCou: FMM=F IPFlag=           0 FMFlag=           0 FMFlg1=           0
         NFxFlg=           0 DoJE=F BraDBF=F KetDBF=F FulRan=T
         wScrn=  0.000000 ICntrl=       600 IOpCl=  0 I1Cent=           0 NGrid=           0
         NMat0=    1 NMatS0=   5565 NMatT0=    0 NMatD0=    1 NMtDS0=    0 NMtDT0=    0
 Symmetry not used in FoFCou.
 Two-electron integral symmetry not used.
 Closed shell SCF:
 Using DIIS extrapolation, IDIIS=  1040.
 NGot=   268435456 LenX=   252923730 LenY=   252912264
 Requested convergence on RMS density matrix=1.00D-08 within 128 cycles.
 Requested convergence on MAX density matrix=1.00D-06.
 Requested convergence on             energy=1.00D-06.
 No special actions if energy rises.

 Cycle   1  Pass 1  IDiag  1:
 E= -639.112456611349    
 DIIS: error= 4.33D-02 at cycle   1 NSaved=   1.
 NSaved= 1 IEnMin= 1 EnMin= -639.112456611349     IErMin= 1 ErrMin= 4.33D-02
 ErrMax= 4.33D-02  0.00D+00 EMaxC= 1.00D-01 BMatC= 2.13D-01 BMatP= 2.13D-01
 IDIUse=3 WtCom= 5.67D-01 WtEn= 4.33D-01
 Coeff-Com:  0.100D+01
 Coeff-En:   0.100D+01
 Coeff:      0.100D+01
 Gap=     0.371 Goal=   None    Shift=    0.000
 GapD=    0.371 DampG=1.000 DampE=0.500 DampFc=0.5000 IDamp=-1.
 Damping current iteration by 5.00D-01
 RMSDP=1.52D+00 MaxDP=7.15D+01              OVMax= 9.32D-01

 Cycle   2  Pass 1  IDiag  1:
 E= -637.268297666864     Delta-E=        1.844158944485 Rises=F Damp=T
 DIIS: error= 9.91D-02 at cycle   2 NSaved=   2.
 NSaved= 2 IEnMin= 1 EnMin= -639.112456611349     IErMin= 1 ErrMin= 4.33D-02
 ErrMax= 9.91D-02  0.00D+00 EMaxC= 1.00D-01 BMatC= 6.81D-01 BMatP= 2.13D-01
 IDIUse=2 WtCom= 0.00D+00 WtEn= 1.00D+00
 Coeff-En:   0.918D+00 0.816D-01
 Coeff:      0.918D+00 0.816D-01
 Gap=    -0.068 Goal=   None    Shift=    0.000
 RMSDP=7.59D-01 MaxDP=3.55D+01 DE= 1.84D+00 OVMax= 1.00D+00

 Cycle   3  Pass 1  IDiag  1:
 E= -638.975618119840     Delta-E=       -1.707320452976 Rises=F Damp=F
 DIIS: error= 7.36D-02 at cycle   3 NSaved=   3.
 NSaved= 3 IEnMin= 1 EnMin= -639.112456611349     IErMin= 1 ErrMin= 4.33D-02
 ErrMax= 7.36D-02  0.00D+00 EMaxC= 1.00D-01 BMatC= 4.21D-01 BMatP= 2.13D-01
 IDIUse=2 WtCom= 0.00D+00 WtEn= 1.00D+00
 Coeff-En:   0.601D+00 0.000D+00 0.399D+00
 Coeff:      0.601D+00 0.000D+00 0.399D+00
 Gap=     0.226 Goal=   None    Shift=    0.000
 RMSDP=7.32D-03 MaxDP=1.80D-01 DE=-1.71D+00 OVMax= 2.03D-01

 Cycle   4  Pass 1  IDiag  1:
 E= -639.315679405644     Delta-E=       -0.340061285803 Rises=F Damp=F
 DIIS: error= 7.31D-03 at cycle   4 NSaved=   4.
 NSaved= 4 IEnMin= 4 EnMin= -639.315679405644     IErMin= 4 ErrMin= 7.31D-03
 ErrMax= 7.31D-03  0.00D+00 EMaxC= 1.00D-01 BMatC= 4.50D-03 BMatP= 2.13D-01
 IDIUse=3 WtCom= 9.27D-01 WtEn= 7.31D-02
 Coeff-Com:  0.152D+00 0.359D-01 0.572D-01 0.754D+00
 Coeff-En:   0.000D+00 0.000D+00 0.000D+00 0.100D+01
 Coeff:      0.141D+00 0.333D-01 0.531D-01 0.772D+00
 Gap=     0.221 Goal=   None    Shift=    0.000
 RMSDP=1.32D-03 MaxDP=2.59D-02 DE=-3.40D-01 OVMax= 3.65D-02

 Cycle   5  Pass 1  IDiag  1:
 E= -639.318089146572     Delta-E=       -0.002409740929 Rises=F Damp=F
 DIIS: error= 3.84D-03 at cycle   5 NSaved=   5.
 NSaved= 5 IEnMin= 5 EnMin= -639.318089146572     IErMin= 5 ErrMin= 3.84D-03
 ErrMax= 3.84D-03  0.00D+00 EMaxC= 1.00D-01 BMatC= 1.93D-03 BMatP= 4.50D-03
 IDIUse=3 WtCom= 9.62D-01 WtEn= 3.84D-02
 Coeff-Com:  0.718D-02 0.997D-02 0.243D-01 0.306D+00 0.653D+00
 Coeff-En:   0.000D+00 0.000D+00 0.000D+00 0.316D+00 0.684D+00
 Coeff:      0.690D-02 0.959D-02 0.233D-01 0.306D+00 0.654D+00
 Gap=     0.216 Goal=   None    Shift=    0.000
 RMSDP=6.73D-04 MaxDP=1.50D-02 DE=-2.41D-03 OVMax= 2.29D-02

 Cycle   6  Pass 1  IDiag  1:
 E= -639.320315006259     Delta-E=       -0.002225859687 Rises=F Damp=F
 DIIS: error= 8.89D-04 at cycle   6 NSaved=   6.
 NSaved= 6 IEnMin= 6 EnMin= -639.320315006259     IErMin= 6 ErrMin= 8.89D-04
 ErrMax= 8.89D-04  0.00D+00 EMaxC= 1.00D-01 BMatC= 1.83D-04 BMatP= 1.93D-03
 IDIUse=3 WtCom= 9.91D-01 WtEn= 8.89D-03
 Coeff-Com: -0.787D-02 0.390D-02 0.114D-01 0.111D+00 0.365D+00 0.517D+00
 Coeff-En:   0.000D+00 0.000D+00 0.000D+00 0.000D+00 0.000D+00 0.100D+01
 Coeff:     -0.780D-02 0.387D-02 0.113D-01 0.110D+00 0.361D+00 0.521D+00
 Gap=     0.214 Goal=   None    Shift=    0.000
 RMSDP=1.58D-04 MaxDP=4.73D-03 DE=-2.23D-03 OVMax= 6.06D-03

 Cycle   7  Pass 1  IDiag  1:
 E= -639.320494422532     Delta-E=       -0.000179416273 Rises=F Damp=F
 DIIS: error= 2.43D-04 at cycle   7 NSaved=   7.
 NSaved= 7 IEnMin= 7 EnMin= -639.320494422532     IErMin= 7 ErrMin= 2.43D-04
 ErrMax= 2.43D-04  0.00D+00 EMaxC= 1.00D-01 BMatC= 8.78D-06 BMatP= 1.83D-04
 IDIUse=3 WtCom= 9.98D-01 WtEn= 2.43D-03
 Coeff-Com: -0.370D-02 0.584D-03 0.255D-02-0.319D-02 0.396D-01 0.159D+00
 Coeff-Com:  0.805D+00
 Coeff-En:   0.000D+00 0.000D+00 0.000D+00 0.000D+00 0.000D+00 0.000D+00
 Coeff-En:   0.100D+01
 Coeff:     -0.369D-02 0.582D-03 0.254D-02-0.319D-02 0.395D-01 0.159D+00
 Coeff:      0.805D+00
 Gap=     0.214 Goal=   None    Shift=    0.000
 RMSDP=4.08D-05 MaxDP=1.51D-03 DE=-1.79D-04 OVMax= 1.85D-03

 Cycle   8  Pass 1  IDiag  1:
 E= -639.320504295438     Delta-E=       -0.000009872906 Rises=F Damp=F
 DIIS: error= 4.21D-05 at cycle   8 NSaved=   8.
 NSaved= 8 IEnMin= 8 EnMin= -639.320504295438     IErMin= 8 ErrMin= 4.21D-05
 ErrMax= 4.21D-05  0.00D+00 EMaxC= 1.00D-01 BMatC= 2.62D-07 BMatP= 8.78D-06
 IDIUse=1 WtCom= 1.00D+00 WtEn= 0.00D+00
 Coeff-Com: -0.444D-03 0.193D-04 0.137D-03-0.580D-02-0.836D-02 0.811D-02
 Coeff-Com:  0.222D+00 0.785D+00
 Coeff:     -0.444D-03 0.193D-04 0.137D-03-0.580D-02-0.836D-02 0.811D-02
 Coeff:      0.222D+00 0.785D+00
 Gap=     0.214 Goal=   None    Shift=    0.000
 RMSDP=1.08D-05 MaxDP=2.39D-04 DE=-9.87D-06 OVMax= 2.48D-04

 Cycle   9  Pass 1  IDiag  1:
 E= -639.320504572013     Delta-E=       -0.000000276575 Rises=F Damp=F
 DIIS: error= 1.21D-05 at cycle   9 NSaved=   9.
 NSaved= 9 IEnMin= 9 EnMin= -639.320504572013     IErMin= 9 ErrMin= 1.21D-05
 ErrMax= 1.21D-05  0.00D+00 EMaxC= 1.00D-01 BMatC= 3.01D-08 BMatP= 2.62D-07
 IDIUse=1 WtCom= 1.00D+00 WtEn= 0.00D+00
 Coeff-Com: -0.103D-03 0.164D-04-0.232D-04-0.208D-02-0.374D-02-0.149D-02
 Coeff-Com:  0.599D-01 0.330D+00 0.617D+00
 Coeff:     -0.103D-03 0.164D-04-0.232D-04-0.208D-02-0.374D-02-0.149D-02
 Coeff:      0.599D-01 0.330D+00 0.617D+00
 Gap=     0.214 Goal=   None    Shift=    0.000
 RMSDP=3.03D-06 MaxDP=7.73D-05 DE=-2.77D-07 OVMax= 7.36D-05

 Cycle  10  Pass 1  IDiag  1:
 E= -639.320504605757     Delta-E=       -0.000000033744 Rises=F Damp=F
 DIIS: error= 4.25D-06 at cycle  10 NSaved=  10.
 NSaved=10 IEnMin=10 EnMin= -639.320504605757     IErMin=10 ErrMin= 4.25D-06
 ErrMax= 4.25D-06  0.00D+00 EMaxC= 1.00D-01 BMatC= 2.67D-09 BMatP= 3.01D-08
 IDIUse=1 WtCom= 1.00D+00 WtEn= 0.00D+00
 Coeff-Com:  0.393D-05 0.924D-05-0.151D-04-0.408D-03-0.643D-03-0.142D-02
 Coeff-Com: -0.291D-02 0.326D-01 0.209D+00 0.763D+00
 Coeff:      0.393D-05 0.924D-05-0.151D-04-0.408D-03-0.643D-03-0.142D-02
 Coeff:     -0.291D-02 0.326D-01 0.209D+00 0.763D+00
 Gap=     0.214 Goal=   None    Shift=    0.000
 RMSDP=6.42D-07 MaxDP=1.39D-05 DE=-3.37D-08 OVMax= 1.53D-05

 Cycle  11  Pass 1  IDiag  1:
 E= -639.320504607848     Delta-E=       -0.000000002091 Rises=F Damp=F
 DIIS: error= 2.28D-06 at cycle  11 NSaved=  11.
 NSaved=11 IEnMin=11 EnMin= -639.320504607848     IErMin=11 ErrMin= 2.28D-06
 ErrMax= 2.28D-06  0.00D+00 EMaxC= 1.00D-01 BMatC= 4.59D-10 BMatP= 2.67D-09
 IDIUse=1 WtCom= 1.00D+00 WtEn= 0.00D+00
 Coeff-Com: -0.111D-05 0.292D-05 0.882D-05-0.123D-03-0.611D-04-0.391D-03
 Coeff-Com: -0.433D-02-0.690D-02 0.439D-01 0.245D+00 0.723D+00
 Coeff:     -0.111D-05 0.292D-05 0.882D-05-0.123D-03-0.611D-04-0.391D-03
 Coeff:     -0.433D-02-0.690D-02 0.439D-01 0.245D+00 0.723D+00
 Gap=     0.214 Goal=   None    Shift=    0.000
 RMSDP=2.88D-07 MaxDP=5.97D-06 DE=-2.09D-09 OVMax= 1.15D-05

 Cycle  12  Pass 1  IDiag  1:
 E= -639.320504608284     Delta-E=       -0.000000000436 Rises=F Damp=F
 DIIS: error= 5.54D-07 at cycle  12 NSaved=  12.
 NSaved=12 IEnMin=12 EnMin= -639.320504608284     IErMin=12 ErrMin= 5.54D-07
 ErrMax= 5.54D-07  0.00D+00 EMaxC= 1.00D-01 BMatC= 2.20D-11 BMatP= 4.59D-10
 IDIUse=1 WtCom= 1.00D+00 WtEn= 0.00D+00
 Coeff-Com: -0.193D-05 0.404D-06 0.339D-05-0.255D-04-0.287D-04-0.520D-04
 Coeff-Com: -0.123D-03-0.120D-02 0.246D-03-0.244D-01 0.628D-01 0.963D+00
 Coeff:     -0.193D-05 0.404D-06 0.339D-05-0.255D-04-0.287D-04-0.520D-04
 Coeff:     -0.123D-03-0.120D-02 0.246D-03-0.244D-01 0.628D-01 0.963D+00
 Gap=     0.214 Goal=   None    Shift=    0.000
 RMSDP=4.95D-08 MaxDP=1.12D-06 DE=-4.36D-10 OVMax= 2.37D-06

 Cycle  13  Pass 1  IDiag  1:
 E= -639.320504608306     Delta-E=       -0.000000000022 Rises=F Damp=F
 DIIS: error= 5.15D-08 at cycle  13 NSaved=  13.
 NSaved=13 IEnMin=13 EnMin= -639.320504608306     IErMin=13 ErrMin= 5.15D-08
 ErrMax= 5.15D-08  0.00D+00 EMaxC= 1.00D-01 BMatC= 2.03D-13 BMatP= 2.20D-11
 IDIUse=1 WtCom= 1.00D+00 WtEn= 0.00D+00
 Coeff-Com: -0.174D-06 0.626D-07 0.264D-06-0.146D-05-0.381D-05 0.292D-06
 Coeff-Com:  0.434D-04 0.553D-04-0.281D-03-0.636D-02-0.682D-02 0.492D-01
 Coeff-Com:  0.964D+00
 Coeff:     -0.174D-06 0.626D-07 0.264D-06-0.146D-05-0.381D-05 0.292D-06
 Coeff:      0.434D-04 0.553D-04-0.281D-03-0.636D-02-0.682D-02 0.492D-01
 Coeff:      0.964D+00
 Gap=     0.214 Goal=   None    Shift=    0.000
 RMSDP=6.28D-09 MaxDP=1.55D-07 DE=-2.23D-11 OVMax= 2.57D-07

 SCF Done:  E(RB3LYP) =  -639.320504608     A.U. after   13 cycles
            NFock= 13  Conv=0.63D-08     -V/T= 2.0048
 KE= 6.362576111974D+02 PE=-1.819012280938D+03 EE= 3.962186041630D+02
 Leave Link  502 at Wed Oct 28 18:08:14 2020, MaxMem=   268435456 cpu:              83.6 elap:              14.1
 (Enter /afs/cad/linux/gaussian/g16_C.01/SSE4/g16/l801.exe)
 DoSCS=F DFT=T ScalE2(SS,OS)=  1.000000  1.000000
 Range of M.O.s used for correlation:     1   105
 NBasis=   105 NAE=    22 NBE=    22 NFC=     0 NFV=     0
 NROrb=    105 NOA=    22 NOB=    22 NVA=    83 NVB=    83

 **** Warning!!: The largest alpha MO coefficient is  0.29050127D+02

 Leave Link  801 at Wed Oct 28 18:08:15 2020, MaxMem=   268435456 cpu:               0.6 elap:               0.1
 (Enter /afs/cad/linux/gaussian/g16_C.01/SSE4/g16/l1101.exe)
 Using compressed storage, NAtomX=     9.
 Will process     10 centers per pass.
 Leave Link 1101 at Wed Oct 28 18:08:15 2020, MaxMem=   268435456 cpu:               3.3 elap:               0.5
 (Enter /afs/cad/linux/gaussian/g16_C.01/SSE4/g16/l1102.exe)
 Symmetrizing basis deriv contribution to polar:
 IMax=3 JMax=2 DiffMx= 0.00D+00
 Leave Link 1102 at Wed Oct 28 18:08:15 2020, MaxMem=   268435456 cpu:               0.9 elap:               0.2
 (Enter /afs/cad/linux/gaussian/g16_C.01/SSE4/g16/l1110.exe)
 Forming Gx(P) for the SCF density, NAtomX=     9.
 Integral derivatives from FoFJK, PRISM(SPDF).
 Do as many integral derivatives as possible in FoFJK.
 G2DrvN: MDV=     268434375.
 G2DrvN: will do    10 centers at a time, making    1 passes.
 Calling FoFCou, ICntrl=  3107 FMM=F I1Cent=   0 AccDes= 0.00D+00.
 FoFJK:  IHMeth= 1 ICntrl=    3107 DoSepK=F KAlg= 0 I1Cent=           0 FoldK=F
 IRaf=         0 NMat=       1 IRICut=       1 DoRegI=T DoRafI=F ISym2E= 0 IDoP0=0 IntGTp=1.
 FoFCou: FMM=F IPFlag=           0 FMFlag=      100000 FMFlg1=           0
         NFxFlg=           0 DoJE=F BraDBF=F KetDBF=F FulRan=T
         wScrn=  0.000000 ICntrl=      3107 IOpCl=  0 I1Cent=           0 NGrid=           0
         NMat0=    1 NMatS0=      1 NMatT0=    0 NMatD0=    1 NMtDS0=    0 NMtDT0=    0
 Symmetry not used in FoFCou.
 End of G2Drv F.D. properties file   721 does not exist.
 End of G2Drv F.D. properties file   722 does not exist.
 End of G2Drv F.D. properties file   788 does not exist.
 Leave Link 1110 at Wed Oct 28 18:08:29 2020, MaxMem=   268435456 cpu:              82.1 elap:              13.3
 (Enter /afs/cad/linux/gaussian/g16_C.01/SSE4/g16/l1002.exe)
 Minotr:  Closed shell wavefunction.
          IDoAtm=111111111
          Direct CPHF calculation.
          Differentiating once with respect to nuclear coordinates.
          Requested convergence is 1.0D-08 RMS, and 1.0D-07 maximum.
          Secondary convergence is 1.0D-12 RMS, and 1.0D-12 maximum.
          NewPWx=T KeepS1=F KeepF1=F KeepIn=T MapXYZ=F SortEE=F KeepMc=T.
         2732 words used for storage of precomputed grid.
 Keep R1 ints in memory in canonical form, NReq=22914967.
 FoFCou: FMM=F IPFlag=           0 FMFlag=           0 FMFlg1=           0
         NFxFlg=           0 DoJE=F BraDBF=F KetDBF=F FulRan=T
         wScrn=  0.000000 ICntrl=       600 IOpCl=  0 I1Cent=           0 NGrid=           0
         NMat0=    1 NMatS0=   5565 NMatT0=    0 NMatD0=    1 NMtDS0=    0 NMtDT0=    0
 Symmetry not used in FoFCou.
 Two-electron integral symmetry not used.
          MDV=     268435456 using IRadAn=       1.
          Solving linear equations simultaneously, MaxMat=       0.
          There are    30 degrees of freedom in the 1st order CPHF.  IDoFFX=6 NUNeed=     0.
     24 vectors produced by pass  0 Test12= 6.09D-15 3.33D-09 XBig12= 1.24D-01 1.83D-01.
 AX will form    24 AO Fock derivatives at one time.
     24 vectors produced by pass  1 Test12= 6.09D-15 3.33D-09 XBig12= 9.05D-03 2.35D-02.
     24 vectors produced by pass  2 Test12= 6.09D-15 3.33D-09 XBig12= 4.41D-04 4.26D-03.
     24 vectors produced by pass  3 Test12= 6.09D-15 3.33D-09 XBig12= 3.92D-06 4.05D-04.
     24 vectors produced by pass  4 Test12= 6.09D-15 3.33D-09 XBig12= 1.08D-08 2.08D-05.
     20 vectors produced by pass  5 Test12= 6.09D-15 3.33D-09 XBig12= 1.37D-11 6.69D-07.
      4 vectors produced by pass  6 Test12= 6.09D-15 3.33D-09 XBig12= 1.12D-14 1.69D-08.
 InvSVY:  IOpt=1 It=  1 EMax= 2.00D-15
 Solved reduced A of dimension   144 with    24 vectors.
 End of Minotr F.D. properties file   721 does not exist.
 End of Minotr F.D. properties file   722 does not exist.
 End of Minotr F.D. properties file   788 does not exist.
 Leave Link 1002 at Wed Oct 28 18:08:41 2020, MaxMem=   268435456 cpu:              85.4 elap:              12.4
 (Enter /afs/cad/linux/gaussian/g16_C.01/SSE4/g16/l601.exe)
 Copying SCF densities to generalized density rwf, IOpCl= 0 IROHF=0.

 **********************************************************************

            Population analysis using the SCF Density.

 **********************************************************************

 Orbital symmetries:
       Occupied  (A) (A) (A) (A) (A) (A) (A) (A) (A) (A) (A) (A)
                 (A) (A) (A) (A) (A) (A) (A) (A) (A) (A)
       Virtual   (A) (A) (A) (A) (A) (A) (A) (A) (A) (A) (A) (A)
                 (A) (A) (A) (A) (A) (A) (A) (A) (A) (A) (A) (A)
                 (A) (A) (A) (A) (A) (A) (A) (A) (A) (A) (A) (A)
                 (A) (A) (A) (A) (A) (A) (A) (A) (A) (A) (A) (A)
                 (A) (A) (A) (A) (A) (A) (A) (A) (A) (A) (A) (A)
                 (A) (A) (A) (A) (A) (A) (A) (A) (A) (A) (A) (A)
                 (A) (A) (A) (A) (A) (A) (A) (A) (A) (A) (A)
 The electronic state is 1-A.
 Alpha  occ. eigenvalues -- -101.32947 -24.37283 -10.09935 -10.04140  -9.24455
 Alpha  occ. eigenvalues --   -7.00528  -7.00058  -7.00054  -0.81228  -0.63303
 Alpha  occ. eigenvalues --   -0.57527  -0.46256  -0.31704  -0.27384  -0.25580
 Alpha  occ. eigenvalues --   -0.22355  -0.16041  -0.11752  -0.11676  -0.08843
 Alpha  occ. eigenvalues --   -0.08811  -0.08249
 Alpha virt. eigenvalues --    0.13138   0.13959   0.16372   0.18084   0.18723
 Alpha virt. eigenvalues --    0.21186   0.21609   0.22137   0.23369   0.23616
 Alpha virt. eigenvalues --    0.25748   0.25999   0.29322   0.32132   0.37650
 Alpha virt. eigenvalues --    0.40383   0.40844   0.44633   0.44731   0.46836
 Alpha virt. eigenvalues --    0.48380   0.50090   0.59842   0.72217   0.74946
 Alpha virt. eigenvalues --    0.76192   0.77641   0.81133   0.82164   0.84651
 Alpha virt. eigenvalues --    0.85302   0.90110   0.97777   1.05048   1.07422
 Alpha virt. eigenvalues --    1.08017   1.10016   1.11907   1.14880   1.16046
 Alpha virt. eigenvalues --    1.17421   1.22684   1.25078   1.37301   1.49164
 Alpha virt. eigenvalues --    1.60700   1.63486   1.71478   1.80519   1.81274
 Alpha virt. eigenvalues --    1.91877   1.98471   2.05190   2.08426   2.09431
 Alpha virt. eigenvalues --    2.15244   2.16210   2.18442   2.22966   2.23115
 Alpha virt. eigenvalues --    2.28635   2.29174   2.32258   2.36681   2.39052
 Alpha virt. eigenvalues --    2.55916   2.62822   2.67987   2.80333   2.81083
 Alpha virt. eigenvalues --    2.95007   2.99231   3.02334   3.07100   3.40498
 Alpha virt. eigenvalues --    3.50365   3.57747   3.63202   3.65156   4.47841
 Alpha virt. eigenvalues --    4.51511   4.76646   5.46850
          Condensed to atoms (all electrons):
               1          2          3          4          5          6
     1  C    5.120120   0.074460   0.418530   0.418505   0.021773   0.217906
     2  Cl   0.074460  17.600205  -0.047028  -0.047034   0.009892  -0.041558
     3  H    0.418530  -0.047028   0.503516  -0.016090  -0.034810  -0.036035
     4  H    0.418505  -0.047034  -0.016090   0.503525  -0.034800  -0.036011
     5  F    0.021773   0.009892  -0.034810  -0.034800   9.860908  -0.052485
     6  C    0.217906  -0.041558  -0.036035  -0.036011  -0.052485   5.199526
     7  H   -0.041186  -0.006709   0.003483  -0.004323   0.002264   0.397358
     8  H   -0.063836   0.008143  -0.000246  -0.000239  -0.013779   0.426452
     9  H   -0.041223  -0.006745  -0.004317   0.003483   0.002272   0.397404
               7          8          9
     1  C   -0.041186  -0.063836  -0.041223
     2  Cl  -0.006709   0.008143  -0.006745
     3  H    0.003483  -0.000246  -0.004317
     4  H   -0.004323  -0.000239   0.003483
     5  F    0.002264  -0.013779   0.002272
     6  C    0.397358   0.426452   0.397404
     7  H    0.573455  -0.027386  -0.031654
     8  H   -0.027386   0.491241  -0.027396
     9  H   -0.031654  -0.027396   0.573439
 Mulliken charges:
               1
     1  C   -0.125048
     2  Cl  -0.543626
     3  H    0.212997
     4  H    0.212986
     5  F   -0.761235
     6  C   -0.472557
     7  H    0.134698
     8  H    0.207047
     9  H    0.134738
 Sum of Mulliken charges =  -1.00000
 Mulliken charges with hydrogens summed into heavy atoms:
               1
     1  C    0.300935
     2  Cl  -0.543626
     5  F   -0.761235
     6  C    0.003926
 APT charges:
               1
     1  C   -0.516169
     2  Cl  -0.553598
     3  H    0.434203
     4  H    0.434199
     5  F   -0.828339
     6  C   -1.136168
     7  H    0.348411
     8  H    0.469105
     9  H    0.348357
 Sum of APT charges =  -1.00000
 APT charges with hydrogens summed into heavy atoms:
               1
     1  C    0.352233
     2  Cl  -0.553598
     5  F   -0.828339
     6  C    0.029704
 Electronic spatial extent (au):  <R**2>=            628.6101
 Charge=             -1.0000 electrons
 Dipole moment (field-independent basis, Debye):
    X=             -2.5846    Y=              2.7658    Z=             -0.0001  Tot=              3.7855
 Quadrupole moment (field-independent basis, Debye-Ang):
   XX=            -68.9559   YY=            -37.7592   ZZ=            -34.9583
   XY=              5.0213   XZ=             -0.0002   YZ=             -0.0003
 Traceless Quadrupole moment (field-independent basis, Debye-Ang):
   XX=            -21.7315   YY=              9.4653   ZZ=             12.2662
   XY=              5.0213   XZ=             -0.0002   YZ=             -0.0003
 Octapole moment (field-independent basis, Debye-Ang**2):
  XXX=            -27.8351  YYY=             -2.4336  ZZZ=              0.0009  XYY=              0.3533
  XXY=             18.7087  XXZ=             -0.0016  XZZ=              4.5656  YZZ=             -1.3676
  YYZ=             -0.0003  XYZ=              0.0000
 Hexadecapole moment (field-independent basis, Debye-Ang**3):
 XXXX=           -794.8942 YYYY=           -177.8797 ZZZZ=            -57.8883 XXXY=             32.9202
 XXXZ=             -0.0032 YYYX=             -4.5811 YYYZ=             -0.0001 ZZZX=              0.0003
 ZZZY=              0.0012 XXYY=           -146.5446 XXZZ=           -117.5593 YYZZ=            -37.1726
 XXYZ=             -0.0023 YYXZ=              0.0004 ZZXY=             -3.0716
 N-N= 1.472155609690D+02 E-N=-1.819012277084D+03  KE= 6.362576111974D+02
  Exact polarizability:       0.000       0.000       0.000       0.000       0.000       0.000
 Approx polarizability:     124.790      -3.324      55.972      -0.000      -0.000      51.319
 No NMR shielding tensors so no spin-rotation constants.
 Leave Link  601 at Wed Oct 28 18:08:42 2020, MaxMem=   268435456 cpu:               4.2 elap:               0.6
 (Enter /afs/cad/linux/gaussian/g16_C.01/SSE4/g16/l701.exe)
 ... and contract with generalized density number  0.
 Compute integral second derivatives.
 Leave Link  701 at Wed Oct 28 18:08:42 2020, MaxMem=   268435456 cpu:               4.0 elap:               0.6
 (Enter /afs/cad/linux/gaussian/g16_C.01/SSE4/g16/l702.exe)
 L702 exits ... SP integral derivatives will be done elsewhere.
 Leave Link  702 at Wed Oct 28 18:08:43 2020, MaxMem=   268435456 cpu:               0.4 elap:               0.1
 (Enter /afs/cad/linux/gaussian/g16_C.01/SSE4/g16/l703.exe)
 Integral derivatives from FoFJK, PRISM(SPDF).
 Compute integral second derivatives, UseDBF=F ICtDFT=           0.
 Calling FoFJK, ICntrl=    100127 FMM=F ISym2X=0 I1Cent= 0 IOpClX= 0 NMat=1 NMatS=1 NMatT=0.
 FoFJK:  IHMeth= 1 ICntrl=  100127 DoSepK=F KAlg= 0 I1Cent=           0 FoldK=F
 IRaf=         0 NMat=       1 IRICut=       1 DoRegI=T DoRafI=F ISym2E= 0 IDoP0=0 IntGTp=1.
 FoFCou: FMM=F IPFlag=           0 FMFlag=      100000 FMFlg1=         800
         NFxFlg=           0 DoJE=F BraDBF=F KetDBF=F FulRan=T
         wScrn=  0.000000 ICntrl=    100127 IOpCl=  0 I1Cent=           0 NGrid=           0
         NMat0=    1 NMatS0=      1 NMatT0=    0 NMatD0=    1 NMtDS0=    0 NMtDT0=    0
 Symmetry not used in FoFCou.
 Leave Link  703 at Wed Oct 28 18:09:03 2020, MaxMem=   268435456 cpu:             142.7 elap:              20.2
 (Enter /afs/cad/linux/gaussian/g16_C.01/SSE4/g16/l716.exe)
 Dipole        =-1.01687189D+00 1.08814861D+00-2.17640234D-05
 Polarizability= 0.00000000D+00 0.00000000D+00 0.00000000D+00
                 0.00000000D+00 0.00000000D+00 0.00000000D+00
 ***** Axes restored to original set *****
 -------------------------------------------------------------------
 Center     Atomic                   Forces (Hartrees/Bohr)
 Number     Number              X              Y              Z
 -------------------------------------------------------------------
      1        6          -0.002066306   -0.000002038   -0.000909110
      2       17           0.002519103    0.000000543    0.000449099
      3        1          -0.000773885    0.000330681    0.000106380
      4        1          -0.000783076   -0.000331828    0.000108211
      5        9           0.001080687    0.000002534    0.000991294
      6        6          -0.000154424   -0.000004461    0.001293315
      7        1           0.000402642    0.000204997   -0.000404881
      8        1          -0.000626186    0.000004028   -0.001229922
      9        1           0.000401445   -0.000204457   -0.000404385
 -------------------------------------------------------------------
 Cartesian Forces:  Max     0.002519103 RMS     0.000851681
 Force constants in Cartesian coordinates: 
                1             2             3             4             5 
      1  0.176772D-01
      2  0.274183D-03  0.715836D+00
      3  0.720813D-01 -0.464428D-04  0.558226D+00
      4  0.339386D-01 -0.198179D-04 -0.141141D-01  0.456406D-01
      5 -0.196140D-04 -0.212614D-01  0.444641D-05 -0.122768D-04  0.106975D-01
      6 -0.151674D-01  0.560501D-05 -0.123817D-01 -0.596265D-02  0.000000D+00
      7 -0.160054D-01 -0.462490D-01 -0.296880D-01 -0.216391D-01 -0.881131D-02
      8 -0.448670D-01 -0.295576D+00 -0.136868D+00  0.284203D-02  0.300709D-02
      9 -0.297308D-01 -0.136498D+00 -0.132873D+00  0.548770D-02  0.309552D-02
     10 -0.159377D-01  0.460198D-01 -0.295847D-01 -0.216389D-01  0.883029D-02
     11  0.446369D-01 -0.295591D+00  0.136927D+00 -0.282096D-02  0.300105D-02
     12 -0.296300D-01  0.136556D+00 -0.132928D+00  0.548576D-02 -0.309955D-02
     13  0.367245D-01 -0.149616D-04  0.585294D-02 -0.206012D-01  0.813274D-05
     14 -0.982784D-05 -0.143774D-01 -0.108621D-05  0.647960D-05  0.263727D-02
     15  0.852464D-02 -0.236324D-05 -0.967361D-02  0.181385D-04  0.000000D+00
     16 -0.520357D-01 -0.111399D-04 -0.163562D-01 -0.185793D-01  0.853232D-05
     17 -0.124405D-04 -0.884126D-01 -0.288335D-04 -0.228612D-05 -0.249477D-03
     18 -0.712187D-02 -0.121457D-04 -0.233925D+00  0.681705D-02  0.000000D+00
     19 -0.127091D-02  0.149492D-02  0.388609D-02  0.902181D-03  0.607948D-03
     20 -0.861866D-03  0.280912D-03 -0.308739D-03  0.753322D-03  0.545889D-03
     21 -0.156521D-01 -0.316371D-01 -0.135933D-01  0.270682D-03  0.650914D-03
     22 -0.181718D-02  0.000000D+00  0.402944D-02  0.107619D-02  0.000000D+00
     23  0.000000D+00 -0.117898D-02  0.537067D-05  0.502564D-05  0.107570D-02
     24  0.323610D-01  0.121360D-04 -0.925891D-02  0.172585D-02  0.000000D+00
     25 -0.127341D-02 -0.149416D-02  0.389325D-02  0.900861D-03 -0.611115D-03
     26  0.860227D-03  0.280628D-03  0.316061D-03 -0.751516D-03  0.546343D-03
     27 -0.156649D-01  0.316229D-01 -0.135938D-01  0.271607D-03 -0.650247D-03
                6             7             8             9            10 
      6  0.157531D-01
      7 -0.744274D-03  0.450276D-01
      8  0.109531D-02  0.456532D-01  0.296424D+00
      9  0.112757D-02  0.269345D-01  0.143368D+00  0.134552D+00
     10 -0.746411D-03  0.428802D-02 -0.439567D-02  0.208365D-02  0.449552D-01
     11 -0.109504D-02  0.438301D-02 -0.129949D-01  0.128739D-01 -0.454453D-01
     12  0.112856D-02  0.207351D-02 -0.128708D-01  0.989703D-02  0.268297D-01
     13  0.208230D-02 -0.162858D-01  0.131649D-03  0.313326D-03 -0.162822D-01
     14  0.000000D+00  0.413950D-02  0.184184D-02  0.672273D-03 -0.412815D-02
     15  0.206204D-02  0.882787D-03  0.117674D-02  0.326989D-03  0.882620D-03
     16  0.195044D-01  0.417688D-02  0.280900D-03 -0.590534D-02  0.418380D-02
     17  0.188040D-05  0.224445D-02  0.494163D-02 -0.239793D-01 -0.224381D-02
     18 -0.642639D-02  0.596358D-03  0.346734D-02 -0.889123D-02  0.592957D-03
     19  0.261566D-03  0.654733D-03  0.308365D-03  0.103761D-02 -0.177005D-03
     20  0.917177D-03 -0.317577D-03  0.137085D-02  0.198284D-03  0.508489D-03
     21  0.778040D-03  0.505334D-03  0.130916D-02 -0.545495D-02  0.374134D-03
     22  0.505127D-03 -0.405852D-04 -0.163834D-03  0.147190D-03 -0.431738D-04
     23 -0.381212D-05 -0.534489D-03  0.624847D-04  0.107008D-04  0.535119D-03
     24 -0.281888D-02 -0.934961D-03 -0.818936D-04 -0.226477D-03 -0.935855D-03
     25  0.267291D-03 -0.176375D-03  0.210280D-03 -0.367765D-03  0.652012D-03
     26 -0.920157D-03 -0.507796D-03  0.923556D-03  0.259004D-03  0.319217D-03
     27  0.777630D-03  0.374755D-03 -0.595613D-03  0.154176D-02  0.503840D-03
               11            12            13            14            15 
     11  0.296435D+00
     12 -0.143421D+00  0.134610D+00
     13 -0.117725D-03  0.313142D-03  0.286693D-01
     14  0.184498D-02 -0.672579D-03 -0.136770D-04  0.596708D-02
     15 -0.117796D-02  0.327465D-03  0.185460D-02 -0.171054D-05  0.119128D-01
     16 -0.281400D-03 -0.589162D-02 -0.561478D-02  0.174517D-05 -0.605626D-02
     17  0.494853D-02  0.239736D-01  0.882738D-05  0.274015D-02  0.809340D-05
     18 -0.347324D-02 -0.889379D-02 -0.597220D-02  0.332113D-05 -0.626296D-02
     19 -0.209973D-03 -0.367273D-03 -0.145593D-02  0.970674D-03 -0.186722D-02
     20  0.924792D-03 -0.258467D-03  0.350587D-03  0.188389D-03 -0.359981D-04
     21  0.594626D-03  0.154311D-02 -0.934186D-03  0.367683D-03  0.270689D-04
     22  0.164713D-03  0.146902D-03 -0.369497D-02  0.105696D-05 -0.236755D-02
     23  0.614557D-04 -0.100639D-04  0.120065D-05 -0.103047D-02 -0.142572D-05
     24  0.811499D-04 -0.231981D-03 -0.257460D-02 -0.117076D-05  0.125471D-02
     25 -0.309222D-03  0.103978D-02 -0.145893D-02 -0.967801D-03 -0.187176D-02
     26  0.136945D-02 -0.197136D-03 -0.354033D-03  0.188193D-03  0.345392D-04
     27 -0.131009D-02 -0.545279D-02 -0.935323D-03 -0.366212D-03  0.254401D-04
               16            17            18            19            20 
     16  0.562747D+00
     17  0.134314D-04  0.570170D+00
     18  0.207839D-01  0.198109D-04  0.487663D+00
     19 -0.102385D+00 -0.100609D+00 -0.463308D-01  0.106995D+00
     20 -0.981990D-01 -0.223112D+00 -0.753104D-01  0.110205D+00  0.239440D+00
     21 -0.422024D-01 -0.722030D-01 -0.785206D-01  0.480730D-01  0.826287D-01
     22 -0.289971D+00 -0.891987D-04  0.770382D-01 -0.103311D-01  0.392793D-03
     23 -0.887580D-04 -0.480768D-01  0.202581D-04 -0.256202D-01  0.874684D-03
     24  0.783933D-01  0.226769D-04 -0.662104D-01 -0.111418D-01  0.122847D-02
     25 -0.102522D+00  0.100690D+00 -0.464035D-01  0.706789D-02 -0.128322D-01
     26  0.982757D-01 -0.222949D+00  0.752849D-01  0.128520D-01 -0.205135D-01
     27 -0.422697D-01  0.721851D-01 -0.785334D-01  0.644878D-02 -0.905901D-02
               21            22            23            24            25 
     21  0.881318D-01
     22  0.312228D-02  0.315171D+00
     23  0.922288D-02  0.944898D-04  0.473186D-01
     24  0.321834D-02 -0.857497D-01 -0.238970D-04  0.710540D-01
     25  0.644323D-02 -0.103489D-01  0.256082D-01 -0.111432D-01  0.107159D+00
     26  0.906623D-02 -0.399612D-03  0.893404D-03 -0.123666D-02 -0.110294D+00
     27  0.387056D-02  0.312819D-02 -0.922001D-02  0.321959D-02  0.481427D-01
               26            27 
     26  0.239261D+00
     27 -0.826068D-01  0.881450D-01
 FormGI is forming the generalized inverse of G from B-inverse, IUseBI=4.
 Leave Link  716 at Wed Oct 28 18:09:03 2020, MaxMem=   268435456 cpu:               1.2 elap:               0.2
 (Enter /afs/cad/linux/gaussian/g16_C.01/SSE4/g16/l103.exe)

 GradGradGradGradGradGradGradGradGradGradGradGradGradGradGradGradGradGrad
 Berny optimization.
 Red2BG is reusing G-inverse.
 Internal  Forces:  Max     0.002376022 RMS     0.000531697
 Search for a saddle point.
 Step number   1 out of a maximum of   60
 All quantities printed in internal units (Hartrees-Bohrs-Radians)
 Swapping is turned off.
 Second derivative matrix not updated -- analytic derivatives used.
 ITU=  0
     Eigenvalues ---   -0.01217   0.00059   0.00433   0.00853   0.01443
     Eigenvalues ---    0.01954   0.02812   0.03193   0.05999   0.07198
     Eigenvalues ---    0.07841   0.08695   0.09380   0.11652   0.12308
     Eigenvalues ---    0.27279   0.30646   0.33418   0.33604   0.34268
     Eigenvalues ---    0.35850
 Eigenvectors required to have negative eigenvalues:
                          R4        R1        D11       D6        D10
   1                    0.51646  -0.49780  -0.24092   0.24083  -0.23575
                          D7        D9        D8        A1        A2
   1                    0.23565  -0.23057   0.23048   0.15788   0.15788
 RFO step:  Lambda0=1.192214572D-04 Lambda=-2.47271763D-04.
 Linear search not attempted -- option 19 set.
 Iteration  1 RMS(Cart)=  0.01417959 RMS(Int)=  0.00027872
 Iteration  2 RMS(Cart)=  0.00016951 RMS(Int)=  0.00017723
 Iteration  3 RMS(Cart)=  0.00000002 RMS(Int)=  0.00017723
 ITry= 1 IFail=0 DXMaxC= 5.91D-02 DCOld= 1.00D+10 DXMaxT= 3.00D-01 DXLimC= 3.00D+00 Rises=F
 Variable       Old X    -DE/DX   Delta X   Delta X   Delta X     New X
                                 (Linear)    (Quad)   (Total)
    R1        4.17431   0.00238   0.00000  -0.02284  -0.02284   4.15147
    R2        2.03194  -0.00011   0.00000   0.00076   0.00084   2.03279
    R3        2.03194  -0.00011   0.00000   0.00076   0.00084   2.03279
    R4        4.05209  -0.00021   0.00000   0.04724   0.04716   4.09925
    R5        2.83537  -0.00006   0.00000   0.00057   0.00076   2.83612
    R6        4.16264  -0.00032   0.00000   0.01378   0.01372   4.17636
    R7        4.16301  -0.00032   0.00000   0.01347   0.01339   4.17640
    R8        4.26241  -0.00076   0.00000  -0.09631  -0.09640   4.16601
    R9        2.06794   0.00020   0.00000   0.00043   0.00043   2.06837
   R10        2.06663   0.00012   0.00000   0.00040   0.00060   2.06724
   R11        2.06794   0.00020   0.00000   0.00043   0.00043   2.06837
    A1        1.62709   0.00084   0.00000   0.02692   0.02694   1.65403
    A2        1.62701   0.00084   0.00000   0.02700   0.02703   1.65404
    A3        2.86641   0.00154   0.00000   0.02496   0.02499   2.89140
    A4        1.77494  -0.00155   0.00000   0.00085   0.00091   1.77585
    A5        2.04006  -0.00015   0.00000  -0.01031  -0.01094   2.02912
    A6        2.09217   0.00006   0.00000  -0.00471  -0.00521   2.08696
    A7        2.09225   0.00006   0.00000  -0.00478  -0.00528   2.08697
    A8        1.64183   0.00002   0.00000  -0.02581  -0.02590   1.61593
    A9        0.99377   0.00002   0.00000   0.00156   0.00120   0.99497
   A10        0.85794  -0.00002   0.00000  -0.00555  -0.00566   0.85228
   A11        1.28648   0.00005   0.00000  -0.00035  -0.00060   1.28587
   A12        1.28675   0.00005   0.00000  -0.00060  -0.00086   1.28590
   A13        1.94350  -0.00038   0.00000  -0.00269  -0.00275   1.94075
   A14        1.86807  -0.00031   0.00000  -0.01724  -0.01695   1.85112
   A15        1.94346  -0.00038   0.00000  -0.00265  -0.00269   1.94077
   A16        1.91055   0.00043   0.00000   0.01001   0.00984   1.92040
   A17        1.88753   0.00022   0.00000   0.00303   0.00301   1.89054
   A18        1.91056   0.00043   0.00000   0.01002   0.00983   1.92039
   A19        1.77951   0.00027   0.00000   0.04149   0.04165   1.82116
    D1        3.14098   0.00000   0.00000   0.00052   0.00053   3.14150
    D2       -0.00037   0.00000   0.00000   0.00033   0.00034  -0.00003
    D3        1.05483  -0.00012   0.00000  -0.00056  -0.00059   1.05423
    D4       -3.14086  -0.00000   0.00000  -0.00068  -0.00066  -3.14152
    D5       -1.05338   0.00012   0.00000  -0.00075  -0.00071  -1.05409
    D6        2.81188  -0.00006   0.00000   0.03067   0.03052   2.84240
    D7       -1.38381   0.00005   0.00000   0.03056   0.03045  -1.35335
    D8        0.70367   0.00017   0.00000   0.03048   0.03041   0.73408
    D9       -0.70215  -0.00018   0.00000  -0.03187  -0.03180  -0.73394
   D10        1.38535  -0.00006   0.00000  -0.03199  -0.03187   1.35349
   D11       -2.81035   0.00006   0.00000  -0.03206  -0.03191  -2.84227
   D12       -2.08683  -0.00012   0.00000  -0.00051  -0.00054  -2.08737
   D13        0.00067  -0.00000   0.00000  -0.00062  -0.00061   0.00005
   D14        2.08814   0.00012   0.00000  -0.00070  -0.00065   2.08749
   D15        0.00052  -0.00000   0.00000  -0.00046  -0.00047   0.00004
   D16        0.44883  -0.00002   0.00000  -0.00344  -0.00348   0.44535
   D17       -0.44751   0.00002   0.00000   0.00226   0.00228  -0.44524
   D18       -0.00065   0.00000   0.00000   0.00057   0.00059  -0.00006
   D19        2.10791  -0.00039   0.00000  -0.00723  -0.00727   2.10065
   D20       -2.10916   0.00039   0.00000   0.00832   0.00837  -2.10078
         Item               Value     Threshold  Converged?
 Maximum Force            0.002376     0.000450     NO 
 RMS     Force            0.000532     0.000300     NO 
 Maximum Displacement     0.059115     0.001800     NO 
 RMS     Displacement     0.014188     0.001200     NO 
 Predicted change in Energy=-6.516279D-05
 Lowest energy point so far.  Saving SCF results.
 GradGradGradGradGradGradGradGradGradGradGradGradGradGradGradGradGradGrad

 Leave Link  103 at Wed Oct 28 18:09:04 2020, MaxMem=   268435456 cpu:               3.6 elap:               0.6
 (Enter /afs/cad/linux/gaussian/g16_C.01/SSE4/g16/l202.exe)
                          Input orientation:                          
 ---------------------------------------------------------------------
 Center     Atomic      Atomic             Coordinates (Angstroms)
 Number     Number       Type             X           Y           Z
 ---------------------------------------------------------------------
      1          6           0        0.020902    0.000151    0.015956
      2         17           0        2.175842   -0.000329   -0.411172
      3          1           0       -0.176064   -0.913395   -0.516753
      4          1           0       -0.175690    0.913687   -0.516908
      5          9           0       -2.145106    0.000556   -0.102247
      6          6           0        0.006817    0.000272    1.516701
      7          1           0        0.507274    0.887529    1.917102
      8          1           0       -1.047209    0.000439    1.809480
      9          1           0        0.507031   -0.887050    1.917263
 ---------------------------------------------------------------------
                    Distance matrix (angstroms):
                    1          2          3          4          5
     1  C    0.000000
     2  Cl   2.196862   0.000000
     3  H    1.075705   2.525133   0.000000
     4  H    1.075705   2.525135   1.827081   0.000000
     5  F    2.169231   4.331977   2.210033   2.210056   0.000000
     6  C    1.500811   2.901958   2.236776   2.236784   2.692911
     7  H    2.153683   2.998878   3.103857   2.528147   3.449581
     8  H    2.087484   3.913994   2.646761   2.646819   2.204559
     9  H    2.153698   2.998802   2.528190   3.103860   3.449652
                    6          7          8          9
     6  C    0.000000
     7  H    1.094533   0.000000
     8  H    1.093934   1.793022   0.000000
     9  H    1.094533   1.774579   1.793019   0.000000
 Stoichiometry    C2H5ClF(1-)
 Framework group  C1[X(C2H5ClF)]
 Deg. of freedom    21
 Full point group                 C1      NOp   1
 RotChk:  IX=0 Diff= 1.17D-03
 Largest Abelian subgroup         C1      NOp   1
 Largest concise Abelian subgroup C1      NOp   1
                         Standard orientation:                         
 ---------------------------------------------------------------------
 Center     Atomic      Atomic             Coordinates (Angstroms)
 Number     Number       Type             X           Y           Z
 ---------------------------------------------------------------------
      1          6           0        0.360071   -0.182906    0.000011
      2         17           0       -1.835778   -0.249598   -0.000003
      3          1           0        0.466498   -0.740813   -0.913528
      4          1           0        0.466488   -0.740808    0.913554
      5          9           0        2.477099   -0.655933   -0.000004
      6          6           0        0.620924    1.295062   -0.000001
      7          1           0        0.193366    1.772405    0.887322
      8          1           0        1.708761    1.410401   -0.000068
      9          1           0        0.193258    1.772431   -0.887257
 ---------------------------------------------------------------------
 Rotational constants (GHZ):          11.6719539           2.0433151           1.7789189
 Leave Link  202 at Wed Oct 28 18:09:04 2020, MaxMem=   268435456 cpu:               0.7 elap:               0.1
 (Enter /afs/cad/linux/gaussian/g16_C.01/SSE4/g16/l301.exe)
 Standard basis: 6-31+G(d,p) (6D, 7F)
 Ernie: Thresh=  0.10000D-02 Tol=  0.10000D-05 Strict=F.
 There are   105 symmetry adapted cartesian basis functions of A   symmetry.
 There are   105 symmetry adapted basis functions of A   symmetry.
   105 basis functions,   187 primitive gaussians,   105 cartesian basis functions
    22 alpha electrons       22 beta electrons
       nuclear repulsion energy       147.2454317011 Hartrees.
 IExCor=  402 DFT=T Ex+Corr=B3LYP ExCW=0 ScaHFX=  0.200000
 ScaDFX=  0.800000  0.720000  1.000000  0.810000 ScalE2=  1.000000  1.000000
 IRadAn=      5 IRanWt=     -1 IRanGd=            0 ICorTp=0 IEmpDi=  4
 NAtoms=    9 NActive=    9 NUniq=    9 SFac= 1.00D+00 NAtFMM=   60 NAOKFM=F Big=F
 Integral buffers will be    131072 words long.
 Raffenetti 2 integral format.
 Two-electron integral symmetry is turned on.
 Leave Link  301 at Wed Oct 28 18:09:04 2020, MaxMem=   268435456 cpu:               1.0 elap:               0.2
 (Enter /afs/cad/linux/gaussian/g16_C.01/SSE4/g16/l302.exe)
 NPDir=0 NMtPBC=     1 NCelOv=     1 NCel=       1 NClECP=     1 NCelD=      1
         NCelK=      1 NCelE2=     1 NClLst=     1 CellRange=     0.0.
 One-electron integrals computed using PRISM.
 One-electron integral symmetry used in STVInt
 NBasis=   105 RedAO= T EigKep=  2.38D-04  NBF=   105
 NBsUse=   105 1.00D-06 EigRej= -1.00D+00 NBFU=   105
 Precomputing XC quadrature grid using
 IXCGrd= 4 IRadAn=           5 IRanWt=          -1 IRanGd=           0 AccXCQ= 0.00D+00.
 Generated NRdTot=       0 NPtTot=           0 NUsed=           0 NTot=          32
 NSgBfM=   105   105   105   105   105 MxSgAt=     9 MxSgA2=     9.
 Leave Link  302 at Wed Oct 28 18:09:05 2020, MaxMem=   268435456 cpu:               4.0 elap:               0.6
 (Enter /afs/cad/linux/gaussian/g16_C.01/SSE4/g16/l303.exe)
 DipDrv:  MaxL=1.
 Leave Link  303 at Wed Oct 28 18:09:05 2020, MaxMem=   268435456 cpu:               0.9 elap:               0.2
 (Enter /afs/cad/linux/gaussian/g16_C.01/SSE4/g16/l401.exe)
 Initial guess from the checkpoint file:  "/home/b/buttard/SN2-E2/Gau-27047.chk"
 B after Tr=    -0.000000    0.000000    0.000000
         Rot=    1.000000    0.000002    0.000007   -0.000747 Ang=   0.09 deg.
 Guess basis will be translated and rotated to current coordinates.
 JPrj=2 DoOrth=T DoCkMO=T.
 Generating alternative initial guess.
 ExpMin= 4.38D-02 ExpMax= 2.52D+04 ExpMxC= 3.78D+03 IAcc=3 IRadAn=         5 AccDes= 0.00D+00
 Harris functional with IExCor=  402 and IRadAn=       5 diagonalized for initial guess.
 HarFok:  IExCor=  402 AccDes= 0.00D+00 IRadAn=         5 IDoV= 1 UseB2=F ITyADJ=14
 ICtDFT=  3500011 ScaDFX=  1.000000  1.000000  1.000000  1.000000
 FoFCou: FMM=F IPFlag=           0 FMFlag=      100000 FMFlg1=           0
         NFxFlg=           0 DoJE=T BraDBF=F KetDBF=T FulRan=T
         wScrn=  0.000000 ICntrl=       500 IOpCl=  0 I1Cent=   200000004 NGrid=           0
         NMat0=    1 NMatS0=      1 NMatT0=    0 NMatD0=    1 NMtDS0=    0 NMtDT0=    0
 Petite list used in FoFCou.
 Harris En= -639.426769928349    
 Leave Link  401 at Wed Oct 28 18:09:07 2020, MaxMem=   268435456 cpu:              11.7 elap:               1.9
 (Enter /afs/cad/linux/gaussian/g16_C.01/SSE4/g16/l502.exe)
 Keep R1 ints in memory in canonical form, NReq=22934256.
 FoFCou: FMM=F IPFlag=           0 FMFlag=           0 FMFlg1=           0
         NFxFlg=           0 DoJE=F BraDBF=F KetDBF=F FulRan=T
         wScrn=  0.000000 ICntrl=       600 IOpCl=  0 I1Cent=           0 NGrid=           0
         NMat0=    1 NMatS0=   5565 NMatT0=    0 NMatD0=    1 NMtDS0=    0 NMtDT0=    0
 Symmetry not used in FoFCou.
 Two-electron integral symmetry not used.
 Closed shell SCF:
 Using DIIS extrapolation, IDIIS=  1040.
 NGot=   268435456 LenX=   252923730 LenY=   252912264
 Requested convergence on RMS density matrix=1.00D-08 within 128 cycles.
 Requested convergence on MAX density matrix=1.00D-06.
 Requested convergence on             energy=1.00D-06.
 No special actions if energy rises.

 Cycle   1  Pass 1  IDiag  1:
 E= -639.320281238385    
 DIIS: error= 7.87D-04 at cycle   1 NSaved=   1.
 NSaved= 1 IEnMin= 1 EnMin= -639.320281238385     IErMin= 1 ErrMin= 7.87D-04
 ErrMax= 7.87D-04  0.00D+00 EMaxC= 1.00D-01 BMatC= 1.28D-04 BMatP= 1.28D-04
 IDIUse=3 WtCom= 9.92D-01 WtEn= 7.87D-03
 Coeff-Com:  0.100D+01
 Coeff-En:   0.100D+01
 Coeff:      0.100D+01
 Gap=     0.672 Goal=   None    Shift=    0.000
 RMSDP=3.26D-04 MaxDP=5.09D-03              OVMax= 8.74D-03

 Cycle   2  Pass 1  IDiag  1:
 E= -639.320551593138     Delta-E=       -0.000270354754 Rises=F Damp=F
 DIIS: error= 3.19D-04 at cycle   2 NSaved=   2.
 NSaved= 2 IEnMin= 2 EnMin= -639.320551593138     IErMin= 2 ErrMin= 3.19D-04
 ErrMax= 3.19D-04  0.00D+00 EMaxC= 1.00D-01 BMatC= 1.20D-05 BMatP= 1.28D-04
 IDIUse=3 WtCom= 9.97D-01 WtEn= 3.19D-03
 Coeff-Com:  0.807D-01 0.919D+00
 Coeff-En:   0.000D+00 0.100D+01
 Coeff:      0.804D-01 0.920D+00
 Gap=     0.211 Goal=   None    Shift=    0.000
 RMSDP=1.07D-04 MaxDP=2.31D-03 DE=-2.70D-04 OVMax= 3.06D-03

 Cycle   3  Pass 1  IDiag  1:
 E= -639.320545840560     Delta-E=        0.000005752579 Rises=F Damp=F
 DIIS: error= 3.24D-04 at cycle   3 NSaved=   3.
 NSaved= 3 IEnMin= 2 EnMin= -639.320551593138     IErMin= 2 ErrMin= 3.19D-04
 ErrMax= 3.24D-04  0.00D+00 EMaxC= 1.00D-01 BMatC= 2.06D-05 BMatP= 1.20D-05
 IDIUse=3 WtCom= 3.57D-01 WtEn= 6.43D-01
 Coeff-Com: -0.739D-02 0.578D+00 0.430D+00
 Coeff-En:   0.000D+00 0.572D+00 0.428D+00
 Coeff:     -0.264D-02 0.574D+00 0.429D+00
 Gap=     0.212 Goal=   None    Shift=    0.000
 RMSDP=5.93D-05 MaxDP=1.78D-03 DE= 5.75D-06 OVMax= 1.99D-03

 Cycle   4  Pass 1  IDiag  1:
 E= -639.320567744270     Delta-E=       -0.000021903710 Rises=F Damp=F
 DIIS: error= 1.27D-04 at cycle   4 NSaved=   4.
 NSaved= 4 IEnMin= 4 EnMin= -639.320567744270     IErMin= 4 ErrMin= 1.27D-04
 ErrMax= 1.27D-04  0.00D+00 EMaxC= 1.00D-01 BMatC= 1.16D-06 BMatP= 1.20D-05
 IDIUse=3 WtCom= 9.99D-01 WtEn= 1.27D-03
 Coeff-Com: -0.194D-01 0.220D+00 0.223D+00 0.576D+00
 Coeff-En:   0.000D+00 0.000D+00 0.000D+00 0.100D+01
 Coeff:     -0.194D-01 0.220D+00 0.223D+00 0.577D+00
 Gap=     0.211 Goal=   None    Shift=    0.000
 RMSDP=1.07D-05 MaxDP=3.18D-04 DE=-2.19D-05 OVMax= 5.18D-04

 Cycle   5  Pass 1  IDiag  1:
 E= -639.320568269459     Delta-E=       -0.000000525189 Rises=F Damp=F
 DIIS: error= 6.68D-05 at cycle   5 NSaved=   5.
 NSaved= 5 IEnMin= 5 EnMin= -639.320568269459     IErMin= 5 ErrMin= 6.68D-05
 ErrMax= 6.68D-05  0.00D+00 EMaxC= 1.00D-01 BMatC= 4.11D-07 BMatP= 1.16D-06
 IDIUse=1 WtCom= 1.00D+00 WtEn= 0.00D+00
 Coeff-Com: -0.974D-02 0.704D-01 0.900D-01 0.410D+00 0.439D+00
 Coeff:     -0.974D-02 0.704D-01 0.900D-01 0.410D+00 0.439D+00
 Gap=     0.212 Goal=   None    Shift=    0.000
 RMSDP=5.15D-06 MaxDP=1.40D-04 DE=-5.25D-07 OVMax= 2.41D-04

 Cycle   6  Pass 1  IDiag  1:
 E= -639.320568593624     Delta-E=       -0.000000324165 Rises=F Damp=F
 DIIS: error= 6.35D-06 at cycle   6 NSaved=   6.
 NSaved= 6 IEnMin= 6 EnMin= -639.320568593624     IErMin= 6 ErrMin= 6.35D-06
 ErrMax= 6.35D-06  0.00D+00 EMaxC= 1.00D-01 BMatC= 7.00D-09 BMatP= 4.11D-07
 IDIUse=1 WtCom= 1.00D+00 WtEn= 0.00D+00
 Coeff-Com: -0.198D-02 0.685D-02 0.138D-01 0.105D+00 0.175D+00 0.701D+00
 Coeff:     -0.198D-02 0.685D-02 0.138D-01 0.105D+00 0.175D+00 0.701D+00
 Gap=     0.212 Goal=   None    Shift=    0.000
 RMSDP=1.44D-06 MaxDP=3.57D-05 DE=-3.24D-07 OVMax= 3.56D-05

 Cycle   7  Pass 1  IDiag  1:
 E= -639.320568600345     Delta-E=       -0.000000006721 Rises=F Damp=F
 DIIS: error= 2.49D-06 at cycle   7 NSaved=   7.
 NSaved= 7 IEnMin= 7 EnMin= -639.320568600345     IErMin= 7 ErrMin= 2.49D-06
 ErrMax= 2.49D-06  0.00D+00 EMaxC= 1.00D-01 BMatC= 1.11D-09 BMatP= 7.00D-09
 IDIUse=1 WtCom= 1.00D+00 WtEn= 0.00D+00
 Coeff-Com:  0.187D-03-0.551D-02-0.348D-02 0.814D-03 0.391D-01 0.330D+00
 Coeff-Com:  0.639D+00
 Coeff:      0.187D-03-0.551D-02-0.348D-02 0.814D-03 0.391D-01 0.330D+00
 Coeff:      0.639D+00
 Gap=     0.212 Goal=   None    Shift=    0.000
 RMSDP=3.90D-07 MaxDP=7.97D-06 DE=-6.72D-09 OVMax= 1.05D-05

 Cycle   8  Pass 1  IDiag  1:
 E= -639.320568601561     Delta-E=       -0.000000001215 Rises=F Damp=F
 DIIS: error= 5.16D-07 at cycle   8 NSaved=   8.
 NSaved= 8 IEnMin= 8 EnMin= -639.320568601561     IErMin= 8 ErrMin= 5.16D-07
 ErrMax= 5.16D-07  0.00D+00 EMaxC= 1.00D-01 BMatC= 4.13D-11 BMatP= 1.11D-09
 IDIUse=1 WtCom= 1.00D+00 WtEn= 0.00D+00
 Coeff-Com:  0.200D-03-0.248D-02-0.193D-02-0.738D-02 0.388D-02 0.683D-01
 Coeff-Com:  0.215D+00 0.725D+00
 Coeff:      0.200D-03-0.248D-02-0.193D-02-0.738D-02 0.388D-02 0.683D-01
 Coeff:      0.215D+00 0.725D+00
 Gap=     0.212 Goal=   None    Shift=    0.000
 RMSDP=8.17D-08 MaxDP=1.10D-06 DE=-1.22D-09 OVMax= 2.82D-06

 Cycle   9  Pass 1  IDiag  1:
 E= -639.320568601604     Delta-E=       -0.000000000043 Rises=F Damp=F
 DIIS: error= 5.80D-08 at cycle   9 NSaved=   9.
 NSaved= 9 IEnMin= 9 EnMin= -639.320568601604     IErMin= 9 ErrMin= 5.80D-08
 ErrMax= 5.80D-08  0.00D+00 EMaxC= 1.00D-01 BMatC= 6.48D-13 BMatP= 4.13D-11
 IDIUse=1 WtCom= 1.00D+00 WtEn= 0.00D+00
 Coeff-Com:  0.329D-04-0.295D-03-0.226D-03-0.147D-02-0.350D-03 0.127D-02
 Coeff-Com:  0.140D-01 0.126D+00 0.861D+00
 Coeff:      0.329D-04-0.295D-03-0.226D-03-0.147D-02-0.350D-03 0.127D-02
 Coeff:      0.140D-01 0.126D+00 0.861D+00
 Gap=     0.212 Goal=   None    Shift=    0.000
 RMSDP=2.84D-08 MaxDP=1.09D-06 DE=-4.34D-11 OVMax= 6.06D-07

 Cycle  10  Pass 1  IDiag  1:
 E= -639.320568601608     Delta-E=       -0.000000000004 Rises=F Damp=F
 DIIS: error= 1.80D-08 at cycle  10 NSaved=  10.
 NSaved=10 IEnMin=10 EnMin= -639.320568601608     IErMin=10 ErrMin= 1.80D-08
 ErrMax= 1.80D-08  0.00D+00 EMaxC= 1.00D-01 BMatC= 4.15D-14 BMatP= 6.48D-13
 IDIUse=1 WtCom= 1.00D+00 WtEn= 0.00D+00
 Coeff-Com: -0.278D-05 0.623D-04 0.405D-04 0.296D-04-0.356D-03-0.347D-02
 Coeff-Com: -0.820D-02-0.645D-02 0.222D+00 0.796D+00
 Coeff:     -0.278D-05 0.623D-04 0.405D-04 0.296D-04-0.356D-03-0.347D-02
 Coeff:     -0.820D-02-0.645D-02 0.222D+00 0.796D+00
 Gap=     0.212 Goal=   None    Shift=    0.000
 RMSDP=5.64D-09 MaxDP=1.82D-07 DE=-3.87D-12 OVMax= 1.20D-07

 SCF Done:  E(RB3LYP) =  -639.320568602     A.U. after   10 cycles
            NFock= 10  Conv=0.56D-08     -V/T= 2.0048
 KE= 6.362557043507D+02 PE=-1.819056785074D+03 EE= 3.962350804209D+02
 Leave Link  502 at Wed Oct 28 18:09:18 2020, MaxMem=   268435456 cpu:              71.5 elap:              11.9
 (Enter /afs/cad/linux/gaussian/g16_C.01/SSE4/g16/l701.exe)
 ... and contract with generalized density number  0.
 Compute integral first derivatives.
 Leave Link  701 at Wed Oct 28 18:09:19 2020, MaxMem=   268435456 cpu:               3.8 elap:               0.6
 (Enter /afs/cad/linux/gaussian/g16_C.01/SSE4/g16/l702.exe)
 L702 exits ... SP integral derivatives will be done elsewhere.
 Leave Link  702 at Wed Oct 28 18:09:19 2020, MaxMem=   268435456 cpu:               0.4 elap:               0.1
 (Enter /afs/cad/linux/gaussian/g16_C.01/SSE4/g16/l703.exe)
 Integral derivatives from FoFJK, PRISM(SPDF).
 Compute integral first derivatives, UseDBF=F ICtDFT=           0.
 Calling FoFJK, ICntrl=      2127 FMM=F ISym2X=0 I1Cent= 0 IOpClX= 0 NMat=1 NMatS=1 NMatT=0.
 FoFJK:  IHMeth= 1 ICntrl=    2127 DoSepK=F KAlg= 0 I1Cent=           0 FoldK=F
 IRaf=         0 NMat=       1 IRICut=       1 DoRegI=T DoRafI=F ISym2E= 0 IDoP0=0 IntGTp=1.
 FoFCou: FMM=F IPFlag=           0 FMFlag=      100000 FMFlg1=         800
         NFxFlg=           0 DoJE=F BraDBF=F KetDBF=F FulRan=T
         wScrn=  0.000000 ICntrl=      2127 IOpCl=  0 I1Cent=           0 NGrid=           0
         NMat0=    1 NMatS0=      1 NMatT0=    0 NMatD0=    1 NMtDS0=    0 NMtDT0=    0
 Symmetry not used in FoFCou.
 Leave Link  703 at Wed Oct 28 18:09:21 2020, MaxMem=   268435456 cpu:              14.7 elap:               2.1
 (Enter /afs/cad/linux/gaussian/g16_C.01/SSE4/g16/l716.exe)
 Dipole        =-1.12711397D+00 1.05004946D+00 5.70802452D-06
 ***** Axes restored to original set *****
 -------------------------------------------------------------------
 Center     Atomic                   Forces (Hartrees/Bohr)
 Number     Number              X              Y              Z
 -------------------------------------------------------------------
      1        6          -0.000153410   -0.000002751    0.000021659
      2       17           0.000042303    0.000000436   -0.000017867
      3        1           0.000044666   -0.000003173    0.000004650
      4        1           0.000044131    0.000003412    0.000005241
      5        9           0.000008279    0.000000369    0.000025690
      6        6          -0.000000849    0.000001337    0.000032773
      7        1           0.000016839    0.000000110   -0.000003457
      8        1          -0.000019309    0.000000782   -0.000063287
      9        1           0.000017350   -0.000000521   -0.000005402
 -------------------------------------------------------------------
 Cartesian Forces:  Max     0.000153410 RMS     0.000036990
 Leave Link  716 at Wed Oct 28 18:09:22 2020, MaxMem=   268435456 cpu:               0.5 elap:               0.1
 (Enter /afs/cad/linux/gaussian/g16_C.01/SSE4/g16/l103.exe)

 GradGradGradGradGradGradGradGradGradGradGradGradGradGradGradGradGradGrad
 Berny optimization.
 FormGI is forming the generalized inverse of G from B-inverse, IUseBI=4.
 Internal  Forces:  Max     0.000044859 RMS     0.000012729
 Search for a saddle point.
 Step number   2 out of a maximum of   60
 All quantities printed in internal units (Hartrees-Bohrs-Radians)
 Swapping is turned off.
 Update second derivatives using D2CorX and points    1    2
 ITU=  0  0
     Eigenvalues ---   -0.01189   0.00059   0.00432   0.00838   0.01450
     Eigenvalues ---    0.01953   0.02811   0.03193   0.05994   0.07206
     Eigenvalues ---    0.07836   0.08693   0.09379   0.11643   0.12307
     Eigenvalues ---    0.27277   0.30643   0.33417   0.33604   0.34268
     Eigenvalues ---    0.35847
 Eigenvectors required to have negative eigenvalues:
                          R4        R1        D6        D11       D7
   1                    0.51937  -0.49641   0.23772  -0.23761   0.23293
                          D10       D8        D9        A19       A1
   1                   -0.23281   0.22813  -0.22802   0.15769   0.15720
 RFO step:  Lambda0=2.134969879D-07 Lambda=-2.63334444D-07.
 Linear search not attempted -- option 19 set.
 Iteration  1 RMS(Cart)=  0.00059153 RMS(Int)=  0.00000043
 Iteration  2 RMS(Cart)=  0.00000036 RMS(Int)=  0.00000025
 ITry= 1 IFail=0 DXMaxC= 2.77D-03 DCOld= 1.00D+10 DXMaxT= 3.00D-01 DXLimC= 3.00D+00 Rises=F
 Variable       Old X    -DE/DX   Delta X   Delta X   Delta X     New X
                                 (Linear)    (Quad)   (Total)
    R1        4.15147   0.00004   0.00000  -0.00140  -0.00140   4.15007
    R2        2.03279  -0.00001   0.00000   0.00001   0.00001   2.03280
    R3        2.03279  -0.00001   0.00000   0.00001   0.00001   2.03280
    R4        4.09925  -0.00001   0.00000   0.00273   0.00273   4.10198
    R5        2.83612  -0.00001   0.00000  -0.00009  -0.00009   2.83604
    R6        4.17636   0.00001   0.00000   0.00205   0.00205   4.17840
    R7        4.17640   0.00001   0.00000   0.00202   0.00202   4.17842
    R8        4.16601  -0.00003   0.00000  -0.00360  -0.00360   4.16242
    R9        2.06837   0.00001   0.00000   0.00002   0.00002   2.06839
   R10        2.06724   0.00000   0.00000   0.00003   0.00003   2.06727
   R11        2.06837   0.00001   0.00000   0.00002   0.00002   2.06839
    A1        1.65403  -0.00002   0.00000   0.00030   0.00030   1.65434
    A2        1.65404  -0.00002   0.00000   0.00030   0.00030   1.65434
    A3        2.89140  -0.00002   0.00000   0.00022   0.00022   2.89162
    A4        1.77585   0.00001   0.00000   0.00068   0.00068   1.77654
    A5        2.02912   0.00001   0.00000  -0.00011  -0.00011   2.02901
    A6        2.08696   0.00000   0.00000  -0.00021  -0.00021   2.08675
    A7        2.08697   0.00000   0.00000  -0.00023  -0.00023   2.08675
    A8        1.61593   0.00001   0.00000  -0.00090  -0.00090   1.61503
    A9        0.99497  -0.00000   0.00000  -0.00025  -0.00025   0.99472
   A10        0.85228  -0.00000   0.00000  -0.00047  -0.00047   0.85181
   A11        1.28587  -0.00001   0.00000  -0.00040  -0.00040   1.28547
   A12        1.28590  -0.00001   0.00000  -0.00043  -0.00043   1.28546
   A13        1.94075  -0.00000   0.00000   0.00007   0.00007   1.94082
   A14        1.85112  -0.00002   0.00000  -0.00095  -0.00095   1.85017
   A15        1.94077  -0.00000   0.00000   0.00005   0.00005   1.94082
   A16        1.92040   0.00002   0.00000   0.00039   0.00039   1.92078
   A17        1.89054  -0.00000   0.00000   0.00007   0.00007   1.89061
   A18        1.92039   0.00002   0.00000   0.00039   0.00039   1.92078
   A19        1.82116   0.00002   0.00000   0.00211   0.00211   1.82327
    D1        3.14150   0.00000   0.00000   0.00008   0.00008   3.14158
    D2       -0.00003  -0.00000   0.00000   0.00004   0.00004   0.00001
    D3        1.05423  -0.00000   0.00000  -0.00001  -0.00001   1.05423
    D4       -3.14152   0.00000   0.00000  -0.00008  -0.00008   3.14158
    D5       -1.05409   0.00000   0.00000  -0.00017  -0.00017  -1.05426
    D6        2.84240  -0.00002   0.00000   0.00071   0.00071   2.84312
    D7       -1.35335  -0.00002   0.00000   0.00063   0.00063  -1.35272
    D8        0.73408  -0.00001   0.00000   0.00055   0.00055   0.73463
    D9       -0.73394   0.00001   0.00000  -0.00072  -0.00072  -0.73467
   D10        1.35349   0.00002   0.00000  -0.00080  -0.00080   1.35269
   D11       -2.84227   0.00002   0.00000  -0.00088  -0.00088  -2.84315
   D12       -2.08737  -0.00000   0.00000   0.00000   0.00000  -2.08737
   D13        0.00005   0.00000   0.00000  -0.00008  -0.00008  -0.00002
   D14        2.08749   0.00000   0.00000  -0.00016  -0.00016   2.08733
   D15        0.00004   0.00000   0.00000  -0.00006  -0.00006  -0.00002
   D16        0.44535  -0.00000   0.00000  -0.00026  -0.00026   0.44509
   D17       -0.44524   0.00000   0.00000   0.00011   0.00011  -0.44513
   D18       -0.00006  -0.00000   0.00000   0.00008   0.00008   0.00002
   D19        2.10065  -0.00001   0.00000  -0.00020  -0.00020   2.10045
   D20       -2.10078   0.00001   0.00000   0.00037   0.00037  -2.10041
         Item               Value     Threshold  Converged?
 Maximum Force            0.000045     0.000450     YES
 RMS     Force            0.000013     0.000300     YES
 Maximum Displacement     0.002771     0.001800     NO 
 RMS     Displacement     0.000592     0.001200     YES
 Predicted change in Energy=-2.491725D-08
 Lowest energy point so far.  Saving SCF results.
 GradGradGradGradGradGradGradGradGradGradGradGradGradGradGradGradGradGrad

 Leave Link  103 at Wed Oct 28 18:09:22 2020, MaxMem=   268435456 cpu:               6.4 elap:               0.9
 (Enter /afs/cad/linux/gaussian/g16_C.01/SSE4/g16/l202.exe)
                          Input orientation:                          
 ---------------------------------------------------------------------
 Center     Atomic      Atomic             Coordinates (Angstroms)
 Number     Number       Type             X           Y           Z
 ---------------------------------------------------------------------
      1          6           0        0.021651    0.000146    0.015995
      2         17           0        2.175755   -0.000287   -0.411535
      3          1           0       -0.175750   -0.913377   -0.516603
      4          1           0       -0.175417    0.913652   -0.516757
      5          9           0       -2.145855    0.000523   -0.101267
      6          6           0        0.006923    0.000275    1.516688
      7          1           0        0.507185    0.887528    1.917368
      8          1           0       -1.047523    0.000509    1.808014
      9          1           0        0.506829   -0.887109    1.917520
 ---------------------------------------------------------------------
                    Distance matrix (angstroms):
                    1          2          3          4          5
     1  C    0.000000
     2  Cl   2.196121   0.000000
     3  H    1.075710   2.524748   0.000000
     4  H    1.075711   2.524750   1.827030   0.000000
     5  F    2.170676   4.332734   2.211115   2.211123   0.000000
     6  C    1.500766   2.902047   2.236605   2.236605   2.692997
     7  H    2.153697   2.999355   3.103849   2.528159   3.449679
     8  H    2.086736   3.913556   2.645566   2.645555   2.202655
     9  H    2.153699   2.999377   2.528153   3.103853   3.449656
                    6          7          8          9
     6  C    0.000000
     7  H    1.094543   0.000000
     8  H    1.093950   1.793286   0.000000
     9  H    1.094543   1.774638   1.793284   0.000000
 Stoichiometry    C2H5ClF(1-)
 Framework group  C1[X(C2H5ClF)]
 Deg. of freedom    21
 Full point group                 C1      NOp   1
 RotChk:  IX=2 Diff= 3.63D-04
 Largest Abelian subgroup         C1      NOp   1
 Largest concise Abelian subgroup C1      NOp   1
                         Standard orientation:                         
 ---------------------------------------------------------------------
 Center     Atomic      Atomic             Coordinates (Angstroms)
 Number     Number       Type             X           Y           Z
 ---------------------------------------------------------------------
      1          6           0        0.359212   -0.182874    0.000004
      2         17           0       -1.835896   -0.249537   -0.000001
      3          1           0        0.465960   -0.740774   -0.913509
      4          1           0        0.465958   -0.740768    0.913521
      5          9           0        2.477752   -0.655761   -0.000002
[...]
     Eigenvalues ---    0.07831   0.08688   0.09512   0.11618   0.12613
     Eigenvalues ---    0.27312   0.30470   0.33441   0.33555   0.34214
     Eigenvalues ---    0.35874
 Eigenvectors required to have negative eigenvalues:
                          R4        R1        D6        D11       D7
   1                    0.51437  -0.50428   0.23646  -0.23645   0.23173
                          D10       D8        D9        A19       A1
   1                   -0.23172   0.22699  -0.22699   0.16206   0.15444
 Angle between quadratic step and forces=  51.75 degrees.
 Linear search not attempted -- option 19 set.
 Iteration  1 RMS(Cart)=  0.00002733 RMS(Int)=  0.00000000
 Iteration  2 RMS(Cart)=  0.00000000 RMS(Int)=  0.00000000
 ITry= 1 IFail=0 DXMaxC= 1.16D-04 DCOld= 1.00D+10 DXMaxT= 3.00D-01 DXLimC= 3.00D+00 Rises=F
 Variable       Old X    -DE/DX   Delta X   Delta X   Delta X     New X
                                 (Linear)    (Quad)   (Total)
    R1        4.15007  -0.00000   0.00000  -0.00002  -0.00002   4.15005
    R2        2.03280  -0.00000   0.00000  -0.00000  -0.00000   2.03280
    R3        2.03280  -0.00000   0.00000  -0.00000  -0.00000   2.03280
    R4        4.10198  -0.00000   0.00000   0.00007   0.00007   4.10205
    R5        2.83604  -0.00000   0.00000  -0.00001  -0.00001   2.83603
    R6        4.17840   0.00000   0.00000   0.00014   0.00014   4.17854
    R7        4.17842   0.00000   0.00000   0.00012   0.00012   4.17854
    R8        4.16242  -0.00000   0.00000  -0.00016  -0.00016   4.16225
    R9        2.06839   0.00000   0.00000   0.00000   0.00000   2.06839
   R10        2.06727   0.00000   0.00000   0.00000   0.00000   2.06727
   R11        2.06839   0.00000   0.00000   0.00000   0.00000   2.06839
    A1        1.65434  -0.00000   0.00000  -0.00002  -0.00002   1.65432
    A2        1.65434  -0.00000   0.00000  -0.00002  -0.00002   1.65432
    A3        2.89162  -0.00000   0.00000   0.00003   0.00003   2.89165
    A4        1.77654  -0.00000   0.00000   0.00001   0.00001   1.77654
    A5        2.02901   0.00000   0.00000   0.00003   0.00003   2.02904
    A6        2.08675  -0.00000   0.00000  -0.00001  -0.00001   2.08674
    A7        2.08675  -0.00000   0.00000  -0.00001  -0.00001   2.08674
    A8        1.61503   0.00000   0.00000  -0.00004  -0.00004   1.61499
    A9        0.99472  -0.00000   0.00000  -0.00000  -0.00000   0.99472
   A10        0.85181   0.00000   0.00000  -0.00002  -0.00002   0.85179
   A11        1.28547  -0.00000   0.00000  -0.00001  -0.00001   1.28546
   A12        1.28546  -0.00000   0.00000  -0.00000  -0.00000   1.28546
   A13        1.94082  -0.00000   0.00000   0.00000   0.00000   1.94082
   A14        1.85017  -0.00000   0.00000  -0.00003  -0.00003   1.85014
   A15        1.94082  -0.00000   0.00000  -0.00000  -0.00000   1.94082
   A16        1.92078   0.00000   0.00000   0.00001   0.00001   1.92080
   A17        1.89061  -0.00000   0.00000  -0.00000  -0.00000   1.89061
   A18        1.92078   0.00000   0.00000   0.00002   0.00002   1.92080
   A19        1.82327   0.00000   0.00000   0.00007   0.00007   1.82334
    D1        3.14158   0.00000   0.00000   0.00001   0.00001   3.14159
    D2        0.00001  -0.00000   0.00000  -0.00001  -0.00001   0.00000
    D3        1.05423  -0.00000   0.00000   0.00001   0.00001   1.05424
    D4        3.14158   0.00000   0.00000   0.00001   0.00001   3.14159
    D5       -1.05426   0.00000   0.00000   0.00002   0.00002  -1.05424
    D6        2.84312  -0.00000   0.00000  -0.00001  -0.00001   2.84311
    D7       -1.35272  -0.00000   0.00000  -0.00001  -0.00001  -1.35272
    D8        0.73463  -0.00000   0.00000  -0.00000  -0.00000   0.73463
    D9       -0.73467   0.00000   0.00000   0.00004   0.00004  -0.73463
   D10        1.35269   0.00000   0.00000   0.00004   0.00004   1.35272
   D11       -2.84315   0.00000   0.00000   0.00004   0.00004  -2.84311
   D12       -2.08737  -0.00000   0.00000   0.00002   0.00002  -2.08735
   D13       -0.00002   0.00000   0.00000   0.00002   0.00002   0.00000
   D14        2.08733   0.00000   0.00000   0.00002   0.00002   2.08735
   D15       -0.00002   0.00000   0.00000   0.00002   0.00002   0.00000
   D16        0.44509   0.00000   0.00000   0.00001   0.00001   0.44510
   D17       -0.44513  -0.00000   0.00000   0.00003   0.00003  -0.44510
   D18        0.00002  -0.00000   0.00000  -0.00002  -0.00002   0.00000
   D19        2.10045  -0.00000   0.00000  -0.00003  -0.00003   2.10042
   D20       -2.10041   0.00000   0.00000  -0.00001  -0.00001  -2.10042
         Item               Value     Threshold  Converged?
 Maximum Force            0.000002     0.000450     YES
 RMS     Force            0.000001     0.000300     YES
 Maximum Displacement     0.000116     0.001800     YES
 RMS     Displacement     0.000027     0.001200     YES
 Predicted change in Energy=-4.665269D-10
 Optimization completed.
    -- Stationary point found.
                           ----------------------------
                           !   Optimized Parameters   !
                           ! (Angstroms and Degrees)  !
 --------------------------                            --------------------------
 ! Name  Definition              Value          Derivative Info.                !
 --------------------------------------------------------------------------------
 ! R1    R(1,2)                  2.1961         -DE/DX =    0.0                 !
 ! R2    R(1,3)                  1.0757         -DE/DX =    0.0                 !
 ! R3    R(1,4)                  1.0757         -DE/DX =    0.0                 !
 ! R4    R(1,5)                  2.1707         -DE/DX =    0.0                 !
 ! R5    R(1,6)                  1.5008         -DE/DX =    0.0                 !
 ! R6    R(3,5)                  2.2111         -DE/DX =    0.0                 !
 ! R7    R(4,5)                  2.2111         -DE/DX =    0.0                 !
 ! R8    R(5,8)                  2.2027         -DE/DX =    0.0                 !
 ! R9    R(6,7)                  1.0945         -DE/DX =    0.0                 !
 ! R10   R(6,8)                  1.0939         -DE/DX =    0.0                 !
 ! R11   R(6,9)                  1.0945         -DE/DX =    0.0                 !
 ! A1    A(2,1,3)               94.7865         -DE/DX =    0.0                 !
 ! A2    A(2,1,4)               94.7867         -DE/DX =    0.0                 !
 ! A3    A(2,1,5)              165.6776         -DE/DX =    0.0                 !
 ! A4    A(2,1,6)              101.788          -DE/DX =    0.0                 !
 ! A5    A(3,1,4)              116.2539         -DE/DX =    0.0                 !
 ! A6    A(3,1,6)              119.5617         -DE/DX =    0.0                 !
 ! A7    A(4,1,6)              119.5617         -DE/DX =    0.0                 !
 ! A8    A(5,1,6)               92.5344         -DE/DX =    0.0                 !
 ! A9    A(1,5,8)               56.9932         -DE/DX =    0.0                 !
 ! A10   A(3,5,4)               48.8052         -DE/DX =    0.0                 !
 ! A11   A(3,5,8)               73.652          -DE/DX =    0.0                 !
 ! A12   A(4,5,8)               73.6515         -DE/DX =    0.0                 !
 ! A13   A(1,6,7)              111.2008         -DE/DX =    0.0                 !
 ! A14   A(1,6,8)              106.0069         -DE/DX =    0.0                 !
 ! A15   A(1,6,9)              111.2009         -DE/DX =    0.0                 !
 ! A16   A(7,6,8)              110.0528         -DE/DX =    0.0                 !
 ! A17   A(7,6,9)              108.3239         -DE/DX =    0.0                 !
 ! A18   A(8,6,9)              110.0526         -DE/DX =    0.0                 !
 ! A19   A(5,8,6)              104.4655         -DE/DX =    0.0                 !
 ! D1    D(2,1,5,8)            179.9993         -DE/DX =    0.0                 !
 ! D2    D(6,1,5,8)              0.0007         -DE/DX =    0.0                 !
 ! D3    D(2,1,6,7)             60.4027         -DE/DX =    0.0                 !
 ! D4    D(2,1,6,8)            179.9992         -DE/DX =    0.0                 !
 ! D5    D(2,1,6,9)            -60.4045         -DE/DX =    0.0                 !
 ! D6    D(3,1,6,7)            162.8985         -DE/DX =    0.0                 !
 ! D7    D(3,1,6,8)            -77.505          -DE/DX =    0.0                 !
 ! D8    D(3,1,6,9)             42.0912         -DE/DX =    0.0                 !
 ! D9    D(4,1,6,7)            -42.0932         -DE/DX =    0.0                 !
 ! D10   D(4,1,6,8)             77.5032         -DE/DX =    0.0                 !
 ! D11   D(4,1,6,9)           -162.9005         -DE/DX =    0.0                 !
 ! D12   D(5,1,6,7)           -119.5976         -DE/DX =    0.0                 !
 ! D13   D(5,1,6,8)             -0.0012         -DE/DX =    0.0                 !
 ! D14   D(5,1,6,9)            119.5951         -DE/DX =    0.0                 !
 ! D15   D(1,5,8,6)             -0.0009         -DE/DX =    0.0                 !
 ! D16   D(3,5,8,6)             25.5016         -DE/DX =    0.0                 !
 ! D17   D(4,5,8,6)            -25.5038         -DE/DX =    0.0                 !
 ! D18   D(1,6,8,5)              0.0012         -DE/DX =    0.0                 !
 ! D19   D(7,6,8,5)            120.347          -DE/DX =    0.0                 !
 ! D20   D(9,6,8,5)           -120.3447         -DE/DX =    0.0                 !
 --------------------------------------------------------------------------------
 GradGradGradGradGradGradGradGradGradGradGradGradGradGradGradGradGradGrad

 Leave Link  103 at Wed Oct 28 18:10:40 2020, MaxMem=   268435456 cpu:               6.1 elap:               0.9
 (Enter /afs/cad/linux/gaussian/g16_C.01/SSE4/g16/l9999.exe)

 ----------------------------------------------------------------------

 Electric dipole moment (input orientation):
 (Debye = 10**-18 statcoulomb cm , SI units = C m)
                  (au)            (Debye)         (10**-30 SI)
   Tot        0.154435D+01      0.392534D+01      0.130935D+02
   x          0.129015D+01      0.327923D+01      0.109384D+02
   y         -0.152948D-03     -0.388755D-03     -0.129675D-02
   z          0.848834D+00      0.215752D+01      0.719672D+01

 Dipole polarizability, Alpha (input orientation).
 (esu units = cm**3 , SI units = C**2 m**2 J**-1)
 Alpha(0;0):
               (au)            (10**-24 esu)      (10**-40 SI)
   iso        0.589241D+02      0.873166D+01      0.971528D+01
   aniso      0.476906D+02      0.706702D+01      0.786312D+01
   xx         0.896014D+02      0.132776D+02      0.147733D+02
   yx        -0.957332D-02     -0.141862D-02     -0.157843D-02
   yy         0.397800D+02      0.589478D+01      0.655883D+01
   zx        -0.615045D+01     -0.911403D+00     -0.101407D+01
   zy         0.176324D-02      0.261285D-03      0.290718D-03
   zz         0.473910D+02      0.702263D+01      0.781372D+01

 ----------------------------------------------------------------------

 Dipole orientation:
     6         -0.00276270          0.00028149          0.05079268
    17          2.90957007         -0.00039899          3.00737389
     1          0.63291279         -1.72614748         -0.81386222
     1          0.63368603          1.72643851         -0.81383706
     9         -2.06896415          0.00075212         -3.49280342
     6         -2.38717564          0.00080494          1.58626499
     1         -2.50002520          1.67759532          2.79202611
     1         -3.94230592          0.00119501          0.22422352
     1         -2.50081311         -1.67598348          2.79195484

 Electric dipole moment (dipole orientation):
 (Debye = 10**-18 statcoulomb cm , SI units = C m)
                  (au)            (Debye)         (10**-30 SI)
   Tot        0.154435D+01      0.392534D+01      0.130935D+02
   x          0.000000D+00      0.000000D+00      0.000000D+00
   y          0.000000D+00      0.000000D+00      0.000000D+00
   z          0.154435D+01      0.392534D+01      0.130935D+02

 Dipole polarizability, Alpha (dipole orientation).
 (esu units = cm**3 , SI units = C**2 m**2 J**-1)
 Alpha(0;0):
               (au)            (10**-24 esu)      (10**-40 SI)
   iso        0.589241D+02      0.873166D+01      0.971528D+01
   aniso      0.476906D+02      0.706702D+01      0.786312D+01
   xx         0.657911D+02      0.974924D+01      0.108475D+02
   yx        -0.596303D-02     -0.883630D-03     -0.983171D-03
   yy         0.397800D+02      0.589478D+01      0.655883D+01
   zx         0.218160D+02      0.323280D+01      0.359698D+01
   zy        -0.508131D-02     -0.752972D-03     -0.837795D-03
   zz         0.712013D+02      0.105509D+02      0.117395D+02

 ----------------------------------------------------------------------
 Unable to Open any file for archive entry.
 1\1\GINC-NODE525\Freq\RB3LYP\6-31+G(d,p)\C2H5Cl1F1(1-)\BUTTARD\28-Oct-
 2020\0\\#P Geom=AllCheck Guess=TCheck SCRF=Check GenChk RB3LYP/6-31+G(
 d,p) Freq\\opt=(ts,calcfc,noeigenest) freq=noraman ts_sn2\\-1,1\C,0.02
 16506637,0.00014622,0.0159947357\Cl,2.1757548597,-0.0002865426,-0.4115
 348749\H,-0.1757504223,-0.913377371,-0.5166031223\H,-0.1754168525,0.91
 36524674,-0.5167566964\F,-2.1458554633,0.0005226,-0.1012669581\C,0.006
 9228398,0.000275376,1.5166881123\H,0.5071847355,0.8875282458,1.9173678
 391\H,-1.0475226698,0.0005092381,1.8080142954\H,0.5068293092,-0.887109
 2338,1.9175196693\\Version=ES64L-G16RevC.01\State=1-A\HF=-639.3205686\
 RMSD=1.529e-09\RMSF=1.617e-06\ZeroPoint=0.0659009\Thermal=0.0715912\ET
 ot=-639.2489774\HTot=-639.2480333\GTot=-639.2840883\Dipole=1.2901504,-
 0.0001529,0.8488344\DipoleDeriv=2.7170233,-0.0005073,-0.3937684,-0.000
 5,0.1167264,0.0001012,-0.308434,0.0000872,0.4630971,-1.6749934,0.00023
 27,0.2661751,0.0002325,-0.5250066,-0.0000567,0.246394,-0.0000528,-0.61
 76809,-0.1291796,-0.0041281,0.0398784,0.024738,0.0306921,-0.0348709,0.
 0559573,-0.0201489,0.0007704,-0.1291865,0.0041937,0.0398904,-0.0246693
 ,0.0307078,0.0348517,0.0559683,0.0201245,0.000761,-1.7094287,0.0001797
 ,-0.0417937,0.0001717,-0.6937527,0.000003,-0.1102182,0.0000154,-0.7461
 288,-0.1219613,0.0000652,0.1754406,0.000055,0.1435384,-0.0000582,0.034
 9275,-0.0000314,-0.1189457,0.0297165,-0.080585,-0.0908475,-0.0763886,-
 0.0982853,-0.0874398,-0.0272446,-0.0463228,-0.0103593,-0.0117699,0.000
 0302,0.0958502,0.0000274,0.0937053,-0.0000221,0.0798885,-0.0000199,0.0
 388694,0.0297796,0.0805188,-0.090825,0.0763333,-0.0983255,0.0874918,-0
 .0272388,0.0463488,-0.0103831\Polar=89.6014146,-0.0095733,39.7799755,-
 6.1504502,0.0017632,47.3910245\Quadrupole=-16.8885256,9.1884295,7.7000
 961,0.0047377,0.3087379,-0.0001878\PG=C01 [X(C2H5Cl1F1)]\NImag=1\\0.02
 728753,0.00013112,0.71025602,0.07825754,-0.00002720,0.55466634,0.03431
 238,-0.00001160,-0.01451669,0.04460211,-0.00001169,-0.02217134,0.00000
 343,-0.00000659,0.01141083,-0.01459584,0.00000340,-0.01360575,-0.00636
 016,0.00000171,0.01708410,-0.02002392,-0.05237074,-0.03323409,-0.02101
 999,-0.00881978,-0.00109154,0.04687500,-0.05037650,-0.29310206,-0.1351
 6709,0.00316390,0.00310467,0.00117328,0.05153174,0.29462171,-0.0329832
 3,-0.13476313,-0.13125458,0.00558678,0.00319848,0.00113818,0.03033984,
 0.14170957,0.13323136,-0.01998693,0.05226548,-0.03319350,-0.02101770,0
 .00882846,-0.00109348,0.00459347,-0.00494630,0.00217235,0.04683733,0.0
 5027116,-0.29309382,0.13520617,-0.00315409,0.00310185,-0.00117321,0.00
 494009,-0.01349776,0.01287567,-0.05143615,0.29461139,-0.03294236,0.134
 80218,-0.13129988,0.00558607,-0.00320085,0.00113891,0.00216683,-0.0128
 7251,0.00979981,0.03029667,-0.14174767,0.13327887,0.03464075,-0.000008
 09,0.00517383,-0.01990215,0.00000423,0.00182414,-0.01512482,0.00005436
 ,0.00049730,-0.01512576,-0.00004817,0.00049704,0.02871063,-0.00000782,
 -0.01318485,-0.00000060,0.00000407,0.00254928,-0.00000036,0.00361045,0
 .00171677,0.00062194,-0.00360425,0.00171780,-0.00062237,-0.00000404,0.
 00507272,0.00676639,-0.00000090,-0.00918515,0.00040197,-0.00000011,0.0
 0206762,0.00097319,0.00120466,0.00019529,0.00097336,-0.00120526,0.0001
 9558,0.00331808,0.00000004,0.01192522,-0.05146467,-0.00000806,-0.01554
 920,-0.01993682,0.00000535,0.02036494,0.00419227,0.00022435,-0.0064003
 3,0.00419110,-0.00022524,-0.00639137,-0.00565148,0.00000100,-0.0062959
 8,0.56535058,-0.00000725,-0.08805391,-0.00000884,0.00000440,-0.0002177
 3,-0.00000446,0.00241177,0.00475253,-0.02414759,-0.00241143,0.00475694
 ,0.02414777,0.00000083,0.00294038,0.00000015,0.00000337,0.57095568,-0.
 00615081,-0.00001096,-0.23280856,0.00692260,-0.00000187,-0.00635824,0.
 00080558,0.00336851,-0.00899140,0.00080481,-0.00337106,-0.00899487,-0.
 00649391,0.00000027,-0.00652235,0.02515657,-0.00001299,0.48334339,-0.0
 0119862,0.00187344,0.00406942,0.00094540,0.00062189,0.00026953,0.00068
 193,0.00027925,0.00107044,-0.00019504,-0.00023113,-0.00039152,-0.00156
 927,0.00103793,-0.00194160,-0.10183850,-0.09990014,-0.04634121,0.10591
 395,-0.00098339,0.00015958,-0.00029075,0.00076370,0.00055953,0.0009153
 8,-0.00028353,0.00138282,0.00019191,0.00051212,0.00094185,-0.00027101,
 0.00030356,0.00019640,-0.00007061,-0.09732601,-0.22315866,-0.07581926,
 0.10924239,0.23940221,-0.01565083,-0.03169326,-0.01380512,0.00021376,0
 .00063480,0.00079269,0.00060662,0.00126694,-0.00554502,0.00037676,0.00
 060015,0.00154870,-0.00092743,0.00035752,0.00010056,-0.04199919,-0.072
 52713,-0.07873746,0.04811119,0.08329195,0.08867359,-0.00236764,0.00000
 072,0.00492299,0.00107188,0.00000005,0.00041326,0.00002121,-0.00016229
 ,0.00010830,0.00002153,0.00016231,0.00010826,-0.00440822,0.00000037,-0
 .00225418,-0.29308282,0.00005475,0.07162411,-0.00959665,0.00044524,0.0
 0279858,0.31792748,0.00000315,-0.00097512,-0.00000172,0.00000006,0.001
 10314,-0.00000036,-0.00050836,0.00007938,0.00004190,0.00050821,0.00007
 915,-0.00004199,0.00000030,-0.00120537,0.00000067,0.00005482,-0.048762
 86,-0.00001521,-0.02558790,0.00095787,0.00885541,-0.00006060,0.0477777
 6,0.03293768,-0.00000726,-0.00889675,0.00195204,-0.00000071,-0.0030504
 7,-0.00094304,-0.00008320,-0.00012242,-0.00094308,0.00008356,-0.000122
 30,-0.00296159,0.00000079,0.00112260,0.07310123,-0.00001553,-0.0621677
 0,-0.01131096,0.00126446,0.00296732,-0.08051649,0.00001746,0.06730067,
 -0.00119889,-0.00187227,0.00406970,0.00094489,-0.00062192,0.00026915,-
 0.00019517,0.00023150,-0.00039145,0.00068200,-0.00027877,0.00107037,-0
 .00156969,-0.00103771,-0.00194124,-0.10175966,0.09984370,-0.04632774,0
 .00685680,-0.01267408,0.00647053,-0.00958678,0.02559034,-0.01131579,0.
 10582649,0.00098122,0.00016549,0.00028660,-0.00076385,0.00055978,-0.00
 091538,-0.00051164,0.00094193,0.00027125,0.00028387,0.00138260,-0.0001
 9355,-0.00030297,0.00019686,0.00007137,0.09727042,-0.22321237,0.075862
 56,0.01266428,-0.02044161,0.00921362,-0.00044055,0.00094605,-0.0012595
 6,-0.10918079,0.23946127,-0.01563855,0.03169712,-0.01381055,0.00021363
 ,-0.00063486,0.00079297,0.00037661,-0.00060016,0.00154879,0.00060611,-
 0.00126833,-0.00554481,-0.00092747,-0.00035723,0.00010063,-0.04198667,
 0.07256861,-0.07876281,0.00646471,-0.00921208,0.00400475,0.00279517,-0
 .00885616,0.00296905,0.04809646,-0.08333692,0.08870197\\0.00000473,0.0
 0000046,0.00000052,0.00000094,-0.00000007,-0.00000047,-0.00000374,0.00
 000109,-0.00000106,-0.00000379,-0.00000115,-0.00000113,0.00000179,-0.0
 0000009,-0.00000118,0.00000028,-0.00000016,0.00000031,-0.00000048,0.00
 000017,0.00000007,0.00000093,-0.00000006,0.00000261,-0.00000067,-0.000
 00019,0.00000034\\\@
 The archive entry for this job was punched.


 A HARD FALL SHOULD MEAN A HIGH BOUNCE 
 IF ONE IS MADE OF THE RIGHT MATERIAL.

                -- THE CHEMIST ANALYST, MARCH 1950
 Job cpu time:       0 days  0 hours  6 minutes 38.9 seconds.
 Elapsed time:       0 days  0 hours  0 minutes 59.4 seconds.
 File lengths (MBytes):  RWF=     20 Int=      0 D2E=      0 Chk=      2 Scr=      1
 Normal termination of Gaussian 16 at Wed Oct 28 18:10:40 2020.
