   This run of MOLCAS is using the pymolcas driver

                             OPE
                             OPE          NMOL  CASOP  ENMOLC A   SO
                 OPE        NMOLC        AS  OP EN  MO LC     AS  OP
                OPENM       OL CA        SO  PE NM  OL CA     SOP EN
                OP EN      MO   LC       AS  OP ENMOL  CASO   PENMOL
                OP  EN     MO   LC       AS  OP EN     MO     LC ASO
               OP   E  NMOL  C  AS       OP  EN MO     LC     AS  OP
               OP  E   NMO   LC AS        OPEN  MO     LCASOP EN   M
               O  PEN   MO  LCA  SO
            OPE   NMO   L   CAS    OP
        OPENMOL  CASOP     ENMOL   CASOPE
     OPENMOLCA   SOPENMOLCASOPEN   MOLCASOPE
    OPENMOLCAS   OP           EN   MOL    CAS
    OPENMOLCAS       OP  ENM        O     LCA
    OPENMOLCAS    OPEN  MOLCASO     P  E  NMO
    OPENMOLCAS     OP               E  N  MOL
    OPENMOLCA   SO           PENM   O  L  CAS    OPEN    MO    LCAS
    OPENMOLCA   SOP           ENM   O  L  CAS   OP  EN  MOLC  AS   O
    OPENMOLCA   SOPE           NM      O  LCA   S      OP  EN MO
    OPENMOLC                AS         O  PEN   M      OL  CA  SOPE
    OPENMO        LCASOPE  NMOL        C  ASO   P      ENMOLC     AS
    OPE     NMO      LCA  SO     P     E   NM   OL  CA SO  PE N   MO
          OPENMOLCA            SOPE   NMO        LCAS  O    P  ENMO
     OPENMOLCASOPENMOLCASOPENMOLCASOPENMOLCA
        OPENMOLCASOPENMOLCASOPENMOLCASOPE
            OPENMOLCASOPENMOLCASOPENM
               OPENMOLCASOPENMOLCA        version: 19.11
                   OPENMOLCASO
                       OPE                tag: 1286-gbb55712

 OpenMolcas is free software; you can redistribute it and/or modify it
 under the terms of the GNU Lesser General Public License version 2.1.
 OpenMolcas is distributed in the hope that it will be useful, but it
 is provided "as is" and without any express or implied warranties.
 For more details see the full text of the license in the file
 LICENSE or in <http://www.gnu.org/licenses/>.

                 Copyright (C) The OpenMolcas Authors
           For the author list and the recommended citation,
                   consult the file CONTRIBUTORS.md

           *************************************************
           * pymolcas version py2.10                       *
           *   build 37a7aace52bca75608481ee527254ec4      *
           *   (after the EMIL interpreter by V. Veryazov) *
           *************************************************

configuration info
------------------
C Compiler ID: GNU
C flags: -std=gnu99 -fopenmp
Fortran Compiler ID: GNU
Fortran flags: -fno-aggressive-loop-optimizations -cpp -fdefault-integer-8 -fopenmp
Definitions: _MOLCAS_;_I8_;_LINUX_;_OPENBLAS_
Parallel: OFF (GA=OFF)


   --------------------------------------------------------------------------------------
  |
  |           Project: bf3-tropone
  |    Submitted from: /scratch/albano.b/tropone/s0-opt/aug-cc-pvdz/8-6-1/sa4
  |      Scratch area: /scratch/albano.b/tropone/s0-opt/aug-cc-pvdz/8-6-1/sa4/bf3-tropone
  |   Save outputs to: /scratch/albano.b/tropone/s0-opt/aug-cc-pvdz/8-6-1/sa4
  |            Molcas: /work/lopez/Molcas
  |
  | Scratch area is NOT empty
  |
  |    MOLCAS_DRIVER = /work/lopez/Molcas/bin/pymolcas
  |    MOLCAS_NPROCS = 1
  |     MOLCAS_PRINT = 3
  |    MOLCAS_SOURCE = /work/lopez/Molcas
  | MOLCAS_STRUCTURE = 0
  |
   --------------------------------------------------------------------------------------

++ ---------   Input file   ---------

&GATEWAY
 coord=$MOLCAS_PROJECT.xyz
 basis
 aug-cc-pvdz
 Group=c1
 RICD

>>> DO WHILE

  &SEWARD
  doanalytic

  &RASSCF
   fileorb=$MOLCAS_PROJECT.StrOrb
   Spin=1
   Nactel=8 0 0
   Charge=0
   Ras1=0
   Ras2=6
   Ras3=0
   ITERATIONS=200,100
   CIRoot=4 4 1
   Rlxroot=1

  &SLAPAF
  Iterations=200
  thrshld=0.0 5.0D-4

>>> END DO

&RASSI

&CASPT2
XMULTistate
all
SHIFT
0.2

-- ----------------------------------

--- Start Module: gateway at Wed Nov 29 17:01:01 2023 ---

()()()()()()()()()()()()()()()()()()()()()()()()()()()()()()()()()()()()()()()()()()()()()()()()()()

                                              &GATEWAY

                                   only a single process is used
                       available to each process: 2.9 GB of memory, 1 thread
                                             pid: 64377
()()()()()()()()()()()()()()()()()()()()()()()()()()()()()()()()()()()()()()()()()()()()()()()()()()



 Basis Set     1 Label: C.AUG-CC-PVDZ
 Basis set is read from library:basis_library 
 Basis Set Reference(s):
     Ref: R.A. Kendall, T.H. Dunning, Jr. and R.J. Harrison, J. Chem. Phys. 96, 6769 
     CARBON       (9s,4p,1d) -> [3s,2p,1d], Diffuse (1s,1p,1d)                       




 Basis Set     2 Label: H.AUG-CC-PVDZ
 Basis set is read from library:basis_library 
 Basis Set Reference(s):
     Ref: T.H. Dunning, Jr. J. Chem. Phys. 90, 1007 (1989).                          
     HYDROGEN  (4s,1p) -> [2s,1p], Diffuse (1s,1p)                                   




 Basis Set     3 Label: C.AUG-CC-PVDZ
 Basis set is read from library:basis_library 
 Basis Set Reference(s):
     Ref: R.A. Kendall, T.H. Dunning, Jr. and R.J. Harrison, J. Chem. Phys. 96, 6769 
     CARBON       (9s,4p,1d) -> [3s,2p,1d], Diffuse (1s,1p,1d)                       




 Basis Set     4 Label: O.AUG-CC-PVDZ
 Basis set is read from library:basis_library 
 Basis Set Reference(s):
     Ref: R.A. Kendall, T.H. Dunning, Jr. and R.J. Harrison, J. Chem. Phys. 96, 6769 
     OXYGEN       (9s,4p,1d) -> [3s,2p,1d], Diffuse (1s,1p,1d)                       




 Basis Set     5 Label: B.AUG-CC-PVDZ
 Basis set is read from library:basis_library 
 Basis Set Reference(s):
     Ref: R.A. Kendall, T.H. Dunning, Jr. and R.J. Harrison, J. Chem. Phys. 96, 6769 
     BORON        (9s,4p,1d) -> [3s,2p,1d], Diffuse (1s,1p,1d)                       




 Basis Set     6 Label: F.AUG-CC-PVDZ
 Basis set is read from library:basis_library 
 Basis Set Reference(s):
     Ref: R.A. Kendall, T.H. Dunning, Jr. and R.J. Harrison, J. Chem. Phys. 96, 6769 
     FLUORINE     (9s,4p,1d) -> [3s,2p,1d], Diffuse (1s,1p,1d)                       




 Basis Set     8 Label: C.AUG-CC-PVDZ....acCD-aux-basis.
 On-the-fly basis set generation


 Basis Set     9 Label: C.AUG-CC-PVDZ....acCD-aux-basis.
 On-the-fly basis set generation


 Basis Set    10 Label: H.AUG-CC-PVDZ....acCD-aux-basis.
 On-the-fly basis set generation


 Basis Set    11 Label: C.AUG-CC-PVDZ....acCD-aux-basis.
 On-the-fly basis set generation


 Basis Set    12 Label: C.AUG-CC-PVDZ....acCD-aux-basis.
 On-the-fly basis set generation


 Basis Set    13 Label: O.AUG-CC-PVDZ....acCD-aux-basis.
 On-the-fly basis set generation


 Basis Set    14 Label: O.AUG-CC-PVDZ....acCD-aux-basis.
 On-the-fly basis set generation


 Basis Set    15 Label: B.AUG-CC-PVDZ....acCD-aux-basis.
 On-the-fly basis set generation


 Basis Set    16 Label: B.AUG-CC-PVDZ....acCD-aux-basis.
 On-the-fly basis set generation


 Basis Set    17 Label: F.AUG-CC-PVDZ....acCD-aux-basis.
 On-the-fly basis set generation


 Basis Set    18 Label: F.AUG-CC-PVDZ....acCD-aux-basis.
 On-the-fly basis set generation

  Weights used for alignment and distance                     
  mat. size =    18x    1
       12.0000000000000000
       12.0000000000000000
       12.0000000000000000
       12.0000000000000000
       12.0000000000000000
       12.0000000000000000
        1.0078250322300000
        1.0078250322300000
        1.0078250322300000
        1.0078250322300000
        1.0078250322300000
        1.0078250322300000
       12.0000000000000000
       15.9949146195700003
       11.0093053600000026
       18.9984031627299998
       18.9984031627299998
       18.9984031627299998


++    Symmetry information:
      ---------------------

                    Character Table for C1 

                             E  
                    a        1  x, y, xy, Rz, z, xz, Ry, yz, Rx, I
--


++    Basis set information:
      ----------------------


      Basis set label: C.AUG-CC-PVDZ.........

      Electronic valence basis set:
      ------------------
      Associated Effective Charge   6.000000 au
      Associated Actual Charge      6.000000 au
      Nuclear Model: Point charge

      Shell  nPrim  nBasis  Cartesian Spherical Contaminant
         s      10       4        X                  
         p       5       3        X                  
         d       2       2                 X         

       Label   Cartesian Coordinates / Bohr

 C1                -6.4143484074        0.4909773033       -0.0000075589
 C2                -5.6871969125       -1.9897644462        0.0000453534
 C3                -3.1979287186       -2.9746008852        0.0000963760
 C4                -4.8354444358        2.6507736371        0.0000472432
 C5                -0.9046043370       -1.7809289225       -0.0000925966
 C6                -2.2591619128        2.8240690816       -0.0001133836


      Basis set label: H.AUG-CC-PVDZ.........

      Electronic valence basis set:
      ------------------
      Associated Effective Charge   1.000000 au
      Associated Actual Charge      1.000000 au
      Nuclear Model: Point charge

      Shell  nPrim  nBasis  Cartesian Spherical Contaminant
         s       5       3        X                  
         p       2       2        X                  

       Label   Cartesian Coordinates / Bohr

 H7                -8.4369657423        0.8630322519       -0.0000642507
 H8                -7.1937489400       -3.3899759155        0.0000170075
 H9                -3.0900385850       -5.0300900061        0.0001833034
 H10               -5.8281213485        4.4537499942        0.0002305466
 H11                0.7634984872       -2.9737486188       -0.0004610932
 H12               -1.4384519672        4.7100422101       -0.0000548021


      Basis set label: C.AUG-CC-PVDZ.........

      Electronic valence basis set:
      ------------------
      Associated Effective Charge   6.000000 au
      Associated Actual Charge      6.000000 au
      Nuclear Model: Point charge

      Shell  nPrim  nBasis  Cartesian Spherical Contaminant
         s      10       4        X                  
         p       5       3        X                  
         d       2       2                 X         

       Label   Cartesian Coordinates / Bohr

 C13               -0.3731396514        0.8784561966       -0.0003288123


      Basis set label: O.AUG-CC-PVDZ.........

      Electronic valence basis set:
      ------------------
      Associated Effective Charge   8.000000 au
      Associated Actual Charge      8.000000 au
      Nuclear Model: Point charge

      Shell  nPrim  nBasis  Cartesian Spherical Contaminant
         s      10       4        X                  
         p       5       3        X                  
         d       2       2                 X         

       Label   Cartesian Coordinates / Bohr

 O14                1.8849677942        1.6944834009       -0.0006368377


      Basis set label: B.AUG-CC-PVDZ.........

      Electronic valence basis set:
      ------------------
      Associated Effective Charge   5.000000 au
      Associated Actual Charge      5.000000 au
      Nuclear Model: Point charge

      Shell  nPrim  nBasis  Cartesian Spherical Contaminant
         s      10       4        X                  
         p       5       3        X                  
         d       2       2                 X         

       Label   Cartesian Coordinates / Bohr

 B15                4.2906193865       -0.0426265522        0.0000075589


      Basis set label: F.AUG-CC-PVDZ.........

      Electronic valence basis set:
      ------------------
      Associated Effective Charge   9.000000 au
      Associated Actual Charge      9.000000 au
      Nuclear Model: Point charge

      Shell  nPrim  nBasis  Cartesian Spherical Contaminant
         s      10       4        X                  
         p       5       3        X                  
         d       2       2                 X         

       Label   Cartesian Coordinates / Bohr

 F16                4.1315989331       -1.5095075592       -2.1699819575
 F17                4.1314723215       -1.5072172111        2.1715731069
 F18                6.2615886167        1.6201000012       -0.0007766774
--


++    Molecular structure info:
      -------------------------

                    ************************************************ 
                    **** Cartesian Coordinates / Bohr, Angstrom **** 
                    ************************************************ 

     Center  Label                x              y              z                     x              y              z
        1      C1              -6.414348       0.490977      -0.000008             -3.394327       0.259814      -0.000004
        2      C2              -5.687197      -1.989764       0.000045             -3.009535      -1.052938       0.000024
        3      C3              -3.197929      -2.974601       0.000096             -1.692271      -1.574091       0.000051
        4      C4              -4.835444       2.650774       0.000047             -2.558807       1.402729       0.000025
        5      C5              -0.904604      -1.780929      -0.000093             -0.478696      -0.942427      -0.000049
        6      C6              -2.259162       2.824069      -0.000113             -1.195497       1.494433      -0.000060
        7      H7              -8.436966       0.863032      -0.000064             -4.464650       0.456697      -0.000034
        8      H8              -7.193749      -3.389976       0.000017             -3.806768      -1.793898       0.000009
        9      H9              -3.090039      -5.030090       0.000183             -1.635178      -2.661809       0.000097
       10      H10             -5.828121       4.453750       0.000231             -3.084109       2.356823       0.000122
       11      H11              0.763498      -2.973749      -0.000461              0.404026      -1.573640      -0.000244
       12      H12             -1.438452       4.710042      -0.000055             -0.761196       2.492447      -0.000029
       13      C13             -0.373140       0.878456      -0.000329             -0.197457       0.464859      -0.000174
       14      O14              1.884968       1.694483      -0.000637              0.997482       0.896682      -0.000337
       15      B15              4.290619      -0.042627       0.000008              2.270498      -0.022557       0.000004
       16      F16              4.131599      -1.509508      -2.169982              2.186348      -0.798797      -1.148305
       17      F17              4.131472      -1.507217       2.171573              2.186281      -0.797585       1.149147
       18      F18              6.261589       1.620100      -0.000777              3.313490       0.857320      -0.000411

                    ************************************************* 
                    **** InterNuclear Distances / Bohr, Angstrom **** 
                    ************************************************* 

     Atom centers         Bohr        Angstrom
   11 H11       5 C5      2.050704        1.085186
    7 H7        1 C1      2.056552        1.088280
    8 H8        2 C2      2.056767        1.088394
   12 H12       6 C6      2.056808        1.088416
   10 H10       4 C4      2.058186        1.089145
    9 H9        3 C3      2.058319        1.089215
   14 O14      13 C13     2.401031        1.270571
   18 F18      15 B15     2.578639        1.364557
    6 C6        4 C4      2.582104        1.366391
    2 C2        1 C1      2.585117        1.367985
    5 C5        3 C3      2.585380        1.368124
   16 F16      15 B15     2.624096        1.388612
   17 F17      15 B15     2.624129        1.388629
    4 C4        1 C1      2.675380        1.415750
    3 C3        2 C2      2.677006        1.416610
   13 C13       6 C6      2.709703        1.433913
   13 C13       5 C5      2.711970        1.435113
   15 B15      14 O14     2.967273        1.570213
    9 H9        5 C5      3.915759        2.072131
   10 H10       6 C6      3.923434        2.076192
    8 H8        1 C1      3.958442        2.094717
   11 H11       3 C3      3.961427        2.096297
    7 H7        2 C2      3.962282        2.096749
   12 H12       4 C4      3.972423        2.102116
   13 C13      12 H12     3.976926        2.104499
    9 H9        2 C2      3.998601        2.115969
   10 H10       1 C1      4.005899        2.119831
   13 C13      11 H11     4.016395        2.125385
    8 H8        3 C3      4.017352        2.125891
    7 H7        4 C4      4.020818        2.127725
   16 F16      11 H11     4.265551        2.257232
   17 F17      11 H11     4.267516        2.258272
   14 O14       6 C6      4.295320        2.272986
   17 F17      16 F16     4.341556        2.297452
   18 F18      17 F17     4.363097        2.308851
   18 F18      16 F16     4.363113        2.308860
   11 H11       9 H9      4.367870        2.311377
   18 F18      14 O14     4.377253        2.316342
   12 H12      10 H10     4.397145        2.326869
    9 H9        8 H8      4.419323        2.338605
    8 H8        7 H7      4.430989        2.344779
   10 H10       7 H7      4.438392        2.348696
   14 O14       5 C5      4.456479        2.358267
   17 F17      14 O14     4.473943        2.367509
   16 F16      14 O14     4.474256        2.367674
   14 O14      12 H12     4.487618        2.374745
   15 B15      11 H11     4.586072        2.426845
    4 C4        2 C2      4.718058        2.496689
    3 C3        1 C1      4.728170        2.502040
   15 B15      13 C13     4.753845        2.515626
    6 C6        1 C1      4.765385        2.521733
   13 C13       3 C3      4.777602        2.528198
    5 C5        2 C2      4.787150        2.533251
    6 C6        5 C5      4.800087        2.540097
   14 O14      11 H11     4.801050        2.540606
   13 C13       4 C4      4.801382        2.540782
   15 B15       5 C5      5.478325        2.899005
   16 F16       5 C5      5.490486        2.905440
   17 F17       5 C5      5.491185        2.905810
   17 F17      13 C13     5.540769        2.932049
   16 F16      13 C13     5.540978        2.932159
--


++    Isotope specification:
      ----------------------

 Center
 Type   Z    A    mass (Da)
 --------------------------
    1   6   12    12.000000
    2   1    1     1.007825
    3   6   12    12.000000
    4   8   16    15.994915
    5   5   11    11.009305
    6   9   19    18.998403
--


++    Rigid rotor info:
      -----------------


                    Total mass (a) : 174.04638

                    Center of mass 
                          X          Y          Z   
                       0.25194   -0.00052    0.00001

                    Reference system based on center of mass
                    Coordinates and Masses of Atoms, in au and A
                          X          Y          Z        Mass
                      -6.66629    0.49149   -0.00001   12.00000
                      -5.93913   -1.98925    0.00004   12.00000
                      -3.44987   -2.97409    0.00009   12.00000
                      -5.08738    2.65129    0.00004   12.00000
                      -1.15654   -1.78041   -0.00010   12.00000
                      -2.51110    2.82458   -0.00012   12.00000
                      -8.68890    0.86355   -0.00007    1.00783
                      -7.44569   -3.38946    0.00001    1.00783
                      -3.34198   -5.02957    0.00018    1.00783
                      -6.08006    4.45427    0.00022    1.00783
                       0.51156   -2.97323   -0.00047    1.00783
                      -1.69039    4.71056   -0.00006    1.00783
                      -0.62508    0.87897   -0.00033   12.00000
                       1.63303    1.69500   -0.00064   15.99491
                       4.03868   -0.04211    0.00000   11.00931
                       3.87966   -1.50899   -2.16999   18.99840
                       3.87953   -1.50670    2.17157   18.99840
                       6.00965    1.62062   -0.00078   18.99840

                    The Moment of Inertia Tensor / au
                                     X          Y        Z     
                    X             0.1521E+07
                    Y             0.2884E+03 0.6105E+07
                    Z            -0.5484E+01-0.7476E+00 0.6974E+07

                    The Principal Axes and Moments of Inertia (au)
                    Eigenvalues : 0.6974E+07 0.6105E+07 0.1521E+07
                                     X'         Y'       Z'    
                    Eigenvectors:
                    X            -0.1006E-05 0.6291E-04 0.1000E+01
                    Y            -0.8615E-06 0.1000E+01-0.6291E-04
                    Z             0.1000E+01 0.8615E-06 0.1006E-05

                    The Rotational Constants
                            (cm-1)            (GHz)
                              0.016            0.472
                              0.018            0.539
                              0.072            2.163


                    *******************************************
                    *                                         *
                    * R I G I D - R O T O R   A N A L Y S I S *
                    *                                         *
                    *******************************************

                    j(Max):  5

                    Rotor Type: Linear Rotor
                    Asymmetry parameter: -0.921
                    Prolate = -1
                    Oblate  =  1


                    Rotational energies / cm-1

                    E(J= 0,kappa= 0) =        0.000

                    E(J= 1,kappa=-1) =        0.034
                    E(J= 1,kappa= 0) =        0.088
                    E(J= 1,kappa= 1) =        0.090

                    E(J= 2,kappa=-2) =        0.101
                    E(J= 2,kappa=-1) =        0.153
                    E(J= 2,kappa= 0) =        0.160
                    E(J= 2,kappa= 1) =        0.322
                    E(J= 2,kappa= 2) =        0.322

                    E(J= 3,kappa=-3) =        0.202
                    E(J= 3,kappa=-2) =        0.251
                    E(J= 3,kappa=-1) =        0.264
                    E(J= 3,kappa= 0) =        0.423
                    E(J= 3,kappa= 1) =        0.424
                    E(J= 3,kappa= 2) =        0.700
                    E(J= 3,kappa= 3) =        0.700

                    E(J= 4,kappa=-4) =        0.336
                    E(J= 4,kappa=-3) =        0.381
                    E(J= 4,kappa=-2) =        0.403
                    E(J= 4,kappa=-1) =        0.558
                    E(J= 4,kappa= 0) =        0.559
                    E(J= 4,kappa= 1) =        0.835
                    E(J= 4,kappa= 2) =        0.835
                    E(J= 4,kappa= 3) =        1.222
                    E(J= 4,kappa= 4) =        1.222

                    E(J= 5,kappa=-5) =        0.503
                    E(J= 5,kappa=-4) =        0.544
                    E(J= 5,kappa=-3) =        0.577
                    E(J= 5,kappa=-2) =        0.727
                    E(J= 5,kappa=-1) =        0.729
                    E(J= 5,kappa= 0) =        1.004
                    E(J= 5,kappa= 1) =        1.004
                    E(J= 5,kappa= 2) =        1.391
                    E(J= 5,kappa= 3) =        1.391
                    E(J= 5,kappa= 4) =        1.888
                    E(J= 5,kappa= 5) =        1.888
--


++    Primitive basis info:
      ---------------------


                    *****************************************************
                    ******** Primitive Basis Functions (Valence) ********
                    *****************************************************


 Basis set:C.AUG-CC-PVDZ.........                                                          

                  Type         
                   s
           No.      Exponent    Contraction Coefficients
            1  0.666500000D+04   0.000692  -0.000146   0.000000   0.000000
            2  0.100000000D+04   0.005329  -0.001154   0.000000   0.000000
            3  0.228000000D+03   0.027077  -0.005725   0.000000   0.000000
            4  0.647100000D+02   0.101718  -0.023312   0.000000   0.000000
            5  0.210600000D+02   0.274740  -0.063955   0.000000   0.000000
            6  0.749500000D+01   0.448564  -0.149981   0.000000   0.000000
            7  0.279700000D+01   0.285074  -0.127262   0.000000   0.000000
            8  0.521500000D+00   0.015204   0.544529   0.000000   0.000000
            9  0.159600000D+00  -0.003191   0.580496   1.000000   0.000000
           10  0.469000000D-01   0.000000   0.000000   0.000000   1.000000

                  Type         
                   p
           No.      Exponent    Contraction Coefficients
           11  0.943900000D+01   0.038109   0.000000   0.000000
           12  0.200200000D+01   0.209480   0.000000   0.000000
           13  0.545600000D+00   0.508557   0.000000   0.000000
           14  0.151700000D+00   0.468842   1.000000   0.000000
           15  0.404100000D-01   0.000000   0.000000   1.000000

                  Type         
                   d
           No.      Exponent    Contraction Coefficients
           16  0.550000000D+00   1.000000   0.000000
           17  0.151000000D+00   0.000000   1.000000


 Basis set:H.AUG-CC-PVDZ.........                                                          

                  Type         
                   s
           No.      Exponent    Contraction Coefficients
          103  0.130100000D+02   0.019685   0.000000   0.000000
          104  0.196200000D+01   0.137977   0.000000   0.000000
          105  0.444600000D+00   0.478148   0.000000   0.000000
          106  0.122000000D+00   0.501240   1.000000   0.000000
          107  0.297400000D-01   0.000000   0.000000   1.000000

                  Type         
                   p
           No.      Exponent    Contraction Coefficients
          108  0.727000000D+00   1.000000   0.000000
          109  0.141000000D+00   0.000000   1.000000


 Basis set:C.AUG-CC-PVDZ.........                                                          

                  Type         
                   s
           No.      Exponent    Contraction Coefficients
          145  0.666500000D+04   0.000692  -0.000146   0.000000   0.000000
          146  0.100000000D+04   0.005329  -0.001154   0.000000   0.000000
          147  0.228000000D+03   0.027077  -0.005725   0.000000   0.000000
          148  0.647100000D+02   0.101718  -0.023312   0.000000   0.000000
          149  0.210600000D+02   0.274740  -0.063955   0.000000   0.000000
          150  0.749500000D+01   0.448564  -0.149981   0.000000   0.000000
          151  0.279700000D+01   0.285074  -0.127262   0.000000   0.000000
          152  0.521500000D+00   0.015204   0.544529   0.000000   0.000000
          153  0.159600000D+00  -0.003191   0.580496   1.000000   0.000000
          154  0.469000000D-01   0.000000   0.000000   0.000000   1.000000

                  Type         
                   p
           No.      Exponent    Contraction Coefficients
          155  0.943900000D+01   0.038109   0.000000   0.000000
          156  0.200200000D+01   0.209480   0.000000   0.000000
          157  0.545600000D+00   0.508557   0.000000   0.000000
          158  0.151700000D+00   0.468842   1.000000   0.000000
          159  0.404100000D-01   0.000000   0.000000   1.000000

                  Type         
                   d
           No.      Exponent    Contraction Coefficients
          160  0.550000000D+00   1.000000   0.000000
          161  0.151000000D+00   0.000000   1.000000


 Basis set:O.AUG-CC-PVDZ.........                                                          

                  Type         
                   s
           No.      Exponent    Contraction Coefficients
          162  0.117200000D+05   0.000710  -0.000160   0.000000   0.000000
          163  0.175900000D+04   0.005470  -0.001263   0.000000   0.000000
          164  0.400800000D+03   0.027837  -0.006267   0.000000   0.000000
          165  0.113700000D+03   0.104800  -0.025716   0.000000   0.000000
          166  0.370300000D+02   0.283062  -0.070924   0.000000   0.000000
          167  0.132700000D+02   0.448719  -0.165411   0.000000   0.000000
          168  0.502500000D+01   0.270952  -0.116955   0.000000   0.000000
          169  0.101300000D+01   0.015458   0.557368   0.000000   0.000000
          170  0.302300000D+00  -0.002585   0.572759   1.000000   0.000000
          171  0.789600000D-01   0.000000   0.000000   0.000000   1.000000

                  Type         
                   p
           No.      Exponent    Contraction Coefficients
          172  0.177000000D+02   0.043018   0.000000   0.000000
          173  0.385400000D+01   0.228913   0.000000   0.000000
          174  0.104600000D+01   0.508728   0.000000   0.000000
          175  0.275300000D+00   0.460531   1.000000   0.000000
          176  0.685600000D-01   0.000000   0.000000   1.000000

                  Type         
                   d
           No.      Exponent    Contraction Coefficients
          177  0.118500000D+01   1.000000   0.000000
          178  0.332000000D+00   0.000000   1.000000


 Basis set:B.AUG-CC-PVDZ.........                                                          

                  Type         
                   s
           No.      Exponent    Contraction Coefficients
          179  0.457000000D+04   0.000696  -0.000139   0.000000   0.000000
          180  0.685900000D+03   0.005353  -0.001097   0.000000   0.000000
          181  0.156500000D+03   0.027134  -0.005444   0.000000   0.000000
          182  0.444700000D+02   0.101380  -0.021916   0.000000   0.000000
          183  0.144800000D+02   0.272055  -0.059751   0.000000   0.000000
          184  0.513100000D+01   0.448403  -0.138732   0.000000   0.000000
          185  0.189800000D+01   0.290123  -0.131482   0.000000   0.000000
          186  0.332900000D+00   0.014322   0.539526   0.000000   0.000000
          187  0.104300000D+00  -0.003486   0.580774   1.000000   0.000000
          188  0.310500000D-01   0.000000   0.000000   0.000000   1.000000

                  Type         
                   p
           No.      Exponent    Contraction Coefficients
          189  0.600100000D+01   0.035481   0.000000   0.000000
          190  0.124100000D+01   0.198072   0.000000   0.000000
          191  0.336400000D+00   0.505230   0.000000   0.000000
          192  0.953800000D-01   0.479499   1.000000   0.000000
          193  0.237800000D-01   0.000000   0.000000   1.000000

                  Type         
                   d
           No.      Exponent    Contraction Coefficients
          194  0.343000000D+00   1.000000   0.000000
          195  0.904000000D-01   0.000000   1.000000


 Basis set:F.AUG-CC-PVDZ.........                                                          

                  Type         
                   s
           No.      Exponent    Contraction Coefficients
          196  0.147100000D+05   0.000721  -0.000165   0.000000   0.000000
          197  0.220700000D+04   0.005553  -0.001308   0.000000   0.000000
          198  0.502800000D+03   0.028267  -0.006495   0.000000   0.000000
          199  0.142600000D+03   0.106444  -0.026691   0.000000   0.000000
          200  0.464700000D+02   0.286814  -0.073690   0.000000   0.000000
          201  0.167000000D+02   0.448641  -0.170776   0.000000   0.000000
          202  0.635600000D+01   0.264761  -0.112327   0.000000   0.000000
          203  0.131600000D+01   0.015333   0.562814   0.000000   0.000000
          204  0.389700000D+00  -0.002332   0.568778   1.000000   0.000000
          205  0.986300000D-01   0.000000   0.000000   0.000000   1.000000

                  Type         
                   p
           No.      Exponent    Contraction Coefficients
          206  0.226700000D+02   0.044878   0.000000   0.000000
          207  0.497700000D+01   0.235718   0.000000   0.000000
          208  0.134700000D+01   0.508521   0.000000   0.000000
          209  0.347100000D+00   0.458120   1.000000   0.000000
          210  0.850200000D-01   0.000000   0.000000   1.000000

                  Type         
                   d
           No.      Exponent    Contraction Coefficients
          211  0.164000000D+01   1.000000   0.000000
          212  0.464000000D+00   0.000000   1.000000

  Number of primitives                                  486
  Number of basis functions                             330

--


++    SO/AO info:
      -----------

                    **************************************************
                    ********** Petite list Basis Functions ***********
                    **************************************************


           Basis functions generated by E  

 Basis Label        Type   Center
    1  C1            1s       1
    2  C1            2s       1
    3  C1            *s       1
    4  C1            *s       1
    5  C1            2px      1
    6  C1            *px      1
    7  C1            *px      1
    8  C1            2py      1
    9  C1            *py      1
   10  C1            *py      1
   11  C1            2pz      1
   12  C1            *pz      1
   13  C1            *pz      1
   14  C1            *d2-     1
   15  C1            *d2-     1
   16  C1            *d1-     1
   17  C1            *d1-     1
   18  C1            *d0      1
   19  C1            *d0      1
   20  C1            *d1+     1
   21  C1            *d1+     1
   22  C1            *d2+     1
   23  C1            *d2+     1
   24  C2            1s       2
   25  C2            2s       2
   26  C2            *s       2
   27  C2            *s       2
   28  C2            2px      2
   29  C2            *px      2
   30  C2            *px      2
   31  C2            2py      2
   32  C2            *py      2
   33  C2            *py      2
   34  C2            2pz      2
   35  C2            *pz      2
   36  C2            *pz      2
   37  C2            *d2-     2
   38  C2            *d2-     2
   39  C2            *d1-     2
   40  C2            *d1-     2
   41  C2            *d0      2
   42  C2            *d0      2
   43  C2            *d1+     2
   44  C2            *d1+     2
   45  C2            *d2+     2
   46  C2            *d2+     2
   47  C3            1s       3
   48  C3            2s       3
   49  C3            *s       3
   50  C3            *s       3
   51  C3            2px      3
   52  C3            *px      3
   53  C3            *px      3
   54  C3            2py      3
   55  C3            *py      3
   56  C3            *py      3
   57  C3            2pz      3
   58  C3            *pz      3
   59  C3            *pz      3
   60  C3            *d2-     3
   61  C3            *d2-     3
   62  C3            *d1-     3
   63  C3            *d1-     3
   64  C3            *d0      3
   65  C3            *d0      3
   66  C3            *d1+     3
   67  C3            *d1+     3
   68  C3            *d2+     3
   69  C3            *d2+     3
   70  C4            1s       4
   71  C4            2s       4
   72  C4            *s       4
   73  C4            *s       4
   74  C4            2px      4
   75  C4            *px      4
   76  C4            *px      4
   77  C4            2py      4
   78  C4            *py      4
   79  C4            *py      4
   80  C4            2pz      4
   81  C4            *pz      4
   82  C4            *pz      4
   83  C4            *d2-     4
   84  C4            *d2-     4
   85  C4            *d1-     4
   86  C4            *d1-     4
   87  C4            *d0      4
   88  C4            *d0      4
   89  C4            *d1+     4
   90  C4            *d1+     4
   91  C4            *d2+     4
   92  C4            *d2+     4
   93  C5            1s       5
   94  C5            2s       5
   95  C5            *s       5
   96  C5            *s       5
   97  C5            2px      5
   98  C5            *px      5
   99  C5            *px      5
  100  C5            2py      5
  101  C5            *py      5
  102  C5            *py      5
  103  C5            2pz      5
  104  C5            *pz      5
  105  C5            *pz      5
  106  C5            *d2-     5
  107  C5            *d2-     5
  108  C5            *d1-     5
  109  C5            *d1-     5
  110  C5            *d0      5
  111  C5            *d0      5
  112  C5            *d1+     5
  113  C5            *d1+     5
  114  C5            *d2+     5
  115  C5            *d2+     5
  116  C6            1s       6
  117  C6            2s       6
  118  C6            *s       6
  119  C6            *s       6
  120  C6            2px      6
  121  C6            *px      6
  122  C6            *px      6
  123  C6            2py      6
  124  C6            *py      6
  125  C6            *py      6
  126  C6            2pz      6
  127  C6            *pz      6
  128  C6            *pz      6
  129  C6            *d2-     6
  130  C6            *d2-     6
  131  C6            *d1-     6
  132  C6            *d1-     6
  133  C6            *d0      6
  134  C6            *d0      6
  135  C6            *d1+     6
  136  C6            *d1+     6
  137  C6            *d2+     6
  138  C6            *d2+     6
  139  H7            1s       7
  140  H7            *s       7
  141  H7            *s       7
  142  H7            *px      7
  143  H7            *px      7
  144  H7            *py      7
  145  H7            *py      7
  146  H7            *pz      7
  147  H7            *pz      7
  148  H8            1s       8
  149  H8            *s       8
  150  H8            *s       8
  151  H8            *px      8
  152  H8            *px      8
  153  H8            *py      8
  154  H8            *py      8
  155  H8            *pz      8
  156  H8            *pz      8
  157  H9            1s       9
  158  H9            *s       9
  159  H9            *s       9
  160  H9            *px      9
  161  H9            *px      9
  162  H9            *py      9
  163  H9            *py      9
  164  H9            *pz      9
  165  H9            *pz      9
  166  H10           1s      10
  167  H10           *s      10
  168  H10           *s      10
  169  H10           *px     10
  170  H10           *px     10
  171  H10           *py     10
  172  H10           *py     10
  173  H10           *pz     10
  174  H10           *pz     10
  175  H11           1s      11
  176  H11           *s      11
  177  H11           *s      11
  178  H11           *px     11
  179  H11           *px     11
  180  H11           *py     11
  181  H11           *py     11
  182  H11           *pz     11
  183  H11           *pz     11
  184  H12           1s      12
  185  H12           *s      12
  186  H12           *s      12
  187  H12           *px     12
  188  H12           *px     12
  189  H12           *py     12
  190  H12           *py     12
  191  H12           *pz     12
  192  H12           *pz     12
  193  C13           1s      13
  194  C13           2s      13
  195  C13           *s      13
  196  C13           *s      13
  197  C13           2px     13
  198  C13           *px     13
  199  C13           *px     13
  200  C13           2py     13
  201  C13           *py     13
  202  C13           *py     13
  203  C13           2pz     13
  204  C13           *pz     13
  205  C13           *pz     13
  206  C13           *d2-    13
  207  C13           *d2-    13
  208  C13           *d1-    13
  209  C13           *d1-    13
  210  C13           *d0     13
  211  C13           *d0     13
  212  C13           *d1+    13
  213  C13           *d1+    13
  214  C13           *d2+    13
  215  C13           *d2+    13
  216  O14           1s      14
  217  O14           2s      14
  218  O14           *s      14
  219  O14           *s      14
  220  O14           2px     14
  221  O14           *px     14
  222  O14           *px     14
  223  O14           2py     14
  224  O14           *py     14
  225  O14           *py     14
  226  O14           2pz     14
  227  O14           *pz     14
  228  O14           *pz     14
  229  O14           *d2-    14
  230  O14           *d2-    14
  231  O14           *d1-    14
  232  O14           *d1-    14
  233  O14           *d0     14
  234  O14           *d0     14
  235  O14           *d1+    14
  236  O14           *d1+    14
  237  O14           *d2+    14
  238  O14           *d2+    14
  239  B15           1s      15
  240  B15           2s      15
  241  B15           *s      15
  242  B15           *s      15
  243  B15           2px     15
  244  B15           *px     15
  245  B15           *px     15
  246  B15           2py     15
  247  B15           *py     15
  248  B15           *py     15
  249  B15           2pz     15
  250  B15           *pz     15
  251  B15           *pz     15
  252  B15           *d2-    15
  253  B15           *d2-    15
  254  B15           *d1-    15
  255  B15           *d1-    15
  256  B15           *d0     15
  257  B15           *d0     15
  258  B15           *d1+    15
  259  B15           *d1+    15
  260  B15           *d2+    15
  261  B15           *d2+    15
  262  F16           1s      16
  263  F16           2s      16
  264  F16           *s      16
  265  F16           *s      16
  266  F16           2px     16
  267  F16           *px     16
  268  F16           *px     16
  269  F16           2py     16
  270  F16           *py     16
  271  F16           *py     16
  272  F16           2pz     16
  273  F16           *pz     16
  274  F16           *pz     16
  275  F16           *d2-    16
  276  F16           *d2-    16
  277  F16           *d1-    16
  278  F16           *d1-    16
  279  F16           *d0     16
  280  F16           *d0     16
  281  F16           *d1+    16
  282  F16           *d1+    16
  283  F16           *d2+    16
  284  F16           *d2+    16
  285  F17           1s      17
  286  F17           2s      17
  287  F17           *s      17
  288  F17           *s      17
  289  F17           2px     17
  290  F17           *px     17
  291  F17           *px     17
  292  F17           2py     17
  293  F17           *py     17
  294  F17           *py     17
  295  F17           2pz     17
  296  F17           *pz     17
  297  F17           *pz     17
  298  F17           *d2-    17
  299  F17           *d2-    17
  300  F17           *d1-    17
  301  F17           *d1-    17
  302  F17           *d0     17
  303  F17           *d0     17
  304  F17           *d1+    17
  305  F17           *d1+    17
  306  F17           *d2+    17
  307  F17           *d2+    17
  308  F18           1s      18
  309  F18           2s      18
  310  F18           *s      18
  311  F18           *s      18
  312  F18           2px     18
  313  F18           *px     18
  314  F18           *px     18
  315  F18           2py     18
  316  F18           *py     18
  317  F18           *py     18
  318  F18           2pz     18
  319  F18           *pz     18
  320  F18           *pz     18
  321  F18           *d2-    18
  322  F18           *d2-    18
  323  F18           *d1-    18
  324  F18           *d1-    18
  325  F18           *d0     18
  326  F18           *d0     18
  327  F18           *d1+    18
  328  F18           *d1+    18
  329  F18           *d2+    18
  330  F18           *d2+    18

      Basis set specifications :
      Symmetry species        a  
      Basis functions         330
--


            Nuclear Potential Energy            680.17213133 au

--- Stop Module: gateway at Wed Nov 29 17:01:05 2023 /rc=_RC_ALL_IS_WELL_ ---
--- Module gateway spent 3 seconds ---

--- Start Module: seward at Wed Nov 29 17:01:05 2023 ---

()()()()()()()()()()()()()()()()()()()()()()()()()()()()()()()()()()()()()()()()()()()()()()()()()()

                                              &SEWARD

                                   only a single process is used
                       available to each process: 2.9 GB of memory, 1 thread
                                             pid: 64501
()()()()()()()()()()()()()()()()()()()()()()()()()()()()()()()()()()()()()()()()()()()()()()()()()()


  Weights used for alignment and distance                     
  mat. size =    18x    1
       12.0000000000000000
       12.0000000000000000
       12.0000000000000000
       12.0000000000000000
       12.0000000000000000
       12.0000000000000000
        1.0078250322300000
        1.0078250322300000
        1.0078250322300000
        1.0078250322300000
        1.0078250322300000
        1.0078250322300000
       12.0000000000000000
       15.9949146195700003
       11.0093053600000026
       18.9984031627299998
       18.9984031627299998
       18.9984031627299998

               SEWARD will generate:
                  Multipole Moment integrals up to order  2
                  Kinetic Energy integrals
                  Nuclear Attraction integrals (point charge)
                  One-Electron Hamiltonian integrals
                  Velocity integrals
                  Orbital angular momentum around ( 0.2519 -0.0005  0.0000 )
                  Velocity quadrupole around ( 0.2519 -0.0005  0.0000 )
                  RI decomposed two-electron repulsion integrals stored Cholesky style
                   - acCD auxiliary basis
                   - CD Threshold:   0.10E-03

                   Integrals are discarded if absolute value <: 0.10E-13
                   Integral cutoff threshold is set to       <: 0.10E-15

++    SO/AO info:
      -----------

                    **************************************************
                    ********** Petite list Basis Functions ***********
                    **************************************************


           Basis functions generated by E  

 Basis Label        Type   Center
    1  C1            1s       1
    2  C1            2s       1
    3  C1            *s       1
    4  C1            *s       1
    5  C1            2px      1
    6  C1            *px      1
    7  C1            *px      1
    8  C1            2py      1
    9  C1            *py      1
   10  C1            *py      1
   11  C1            2pz      1
   12  C1            *pz      1
   13  C1            *pz      1
   14  C1            *d2-     1
   15  C1            *d2-     1
   16  C1            *d1-     1
   17  C1            *d1-     1
   18  C1            *d0      1
   19  C1            *d0      1
   20  C1            *d1+     1
   21  C1            *d1+     1
   22  C1            *d2+     1
   23  C1            *d2+     1
   24  C2            1s       2
   25  C2            2s       2
   26  C2            *s       2
   27  C2            *s       2
   28  C2            2px      2
   29  C2            *px      2
   30  C2            *px      2
   31  C2            2py      2
   32  C2            *py      2
   33  C2            *py      2
   34  C2            2pz      2
   35  C2            *pz      2
   36  C2            *pz      2
   37  C2            *d2-     2
   38  C2            *d2-     2
   39  C2            *d1-     2
   40  C2            *d1-     2
   41  C2            *d0      2
   42  C2            *d0      2
   43  C2            *d1+     2
   44  C2            *d1+     2
   45  C2            *d2+     2
   46  C2            *d2+     2
   47  C3            1s       3
   48  C3            2s       3
   49  C3            *s       3
   50  C3            *s       3
   51  C3            2px      3
   52  C3            *px      3
   53  C3            *px      3
   54  C3            2py      3
   55  C3            *py      3
   56  C3            *py      3
   57  C3            2pz      3
   58  C3            *pz      3
   59  C3            *pz      3
   60  C3            *d2-     3
   61  C3            *d2-     3
   62  C3            *d1-     3
   63  C3            *d1-     3
   64  C3            *d0      3
   65  C3            *d0      3
   66  C3            *d1+     3
   67  C3            *d1+     3
   68  C3            *d2+     3
   69  C3            *d2+     3
   70  C4            1s       4
   71  C4            2s       4
   72  C4            *s       4
   73  C4            *s       4
   74  C4            2px      4
   75  C4            *px      4
   76  C4            *px      4
   77  C4            2py      4
   78  C4            *py      4
   79  C4            *py      4
   80  C4            2pz      4
   81  C4            *pz      4
   82  C4            *pz      4
   83  C4            *d2-     4
   84  C4            *d2-     4
   85  C4            *d1-     4
   86  C4            *d1-     4
   87  C4            *d0      4
   88  C4            *d0      4
   89  C4            *d1+     4
   90  C4            *d1+     4
   91  C4            *d2+     4
   92  C4            *d2+     4
   93  C5            1s       5
   94  C5            2s       5
   95  C5            *s       5
   96  C5            *s       5
   97  C5            2px      5
   98  C5            *px      5
   99  C5            *px      5
  100  C5            2py      5
  101  C5            *py      5
  102  C5            *py      5
  103  C5            2pz      5
  104  C5            *pz      5
  105  C5            *pz      5
  106  C5            *d2-     5
  107  C5            *d2-     5
  108  C5            *d1-     5
  109  C5            *d1-     5
  110  C5            *d0      5
  111  C5            *d0      5
  112  C5            *d1+     5
  113  C5            *d1+     5
  114  C5            *d2+     5
  115  C5            *d2+     5
  116  C6            1s       6
  117  C6            2s       6
  118  C6            *s       6
  119  C6            *s       6
  120  C6            2px      6
  121  C6            *px      6
  122  C6            *px      6
  123  C6            2py      6
  124  C6            *py      6
  125  C6            *py      6
  126  C6            2pz      6
  127  C6            *pz      6
  128  C6            *pz      6
  129  C6            *d2-     6
  130  C6            *d2-     6
  131  C6            *d1-     6
  132  C6            *d1-     6
  133  C6            *d0      6
  134  C6            *d0      6
  135  C6            *d1+     6
  136  C6            *d1+     6
  137  C6            *d2+     6
  138  C6            *d2+     6
  139  H7            1s       7
  140  H7            *s       7
  141  H7            *s       7
  142  H7            *px      7
  143  H7            *px      7
  144  H7            *py      7
  145  H7            *py      7
  146  H7            *pz      7
  147  H7            *pz      7
  148  H8            1s       8
  149  H8            *s       8
  150  H8            *s       8
  151  H8            *px      8
  152  H8            *px      8
  153  H8            *py      8
  154  H8            *py      8
  155  H8            *pz      8
  156  H8            *pz      8
  157  H9            1s       9
  158  H9            *s       9
  159  H9            *s       9
  160  H9            *px      9
  161  H9            *px      9
  162  H9            *py      9
  163  H9            *py      9
  164  H9            *pz      9
  165  H9            *pz      9
  166  H10           1s      10
  167  H10           *s      10
  168  H10           *s      10
  169  H10           *px     10
  170  H10           *px     10
  171  H10           *py     10
  172  H10           *py     10
  173  H10           *pz     10
  174  H10           *pz     10
  175  H11           1s      11
  176  H11           *s      11
  177  H11           *s      11
  178  H11           *px     11
  179  H11           *px     11
  180  H11           *py     11
  181  H11           *py     11
  182  H11           *pz     11
  183  H11           *pz     11
  184  H12           1s      12
  185  H12           *s      12
  186  H12           *s      12
  187  H12           *px     12
  188  H12           *px     12
  189  H12           *py     12
  190  H12           *py     12
  191  H12           *pz     12
  192  H12           *pz     12
  193  C13           1s      13
  194  C13           2s      13
  195  C13           *s      13
  196  C13           *s      13
  197  C13           2px     13
  198  C13           *px     13
  199  C13           *px     13
  200  C13           2py     13
  201  C13           *py     13
  202  C13           *py     13
  203  C13           2pz     13
  204  C13           *pz     13
  205  C13           *pz     13
  206  C13           *d2-    13
  207  C13           *d2-    13
  208  C13           *d1-    13
  209  C13           *d1-    13
  210  C13           *d0     13
  211  C13           *d0     13
  212  C13           *d1+    13
  213  C13           *d1+    13
  214  C13           *d2+    13
  215  C13           *d2+    13
  216  O14           1s      14
  217  O14           2s      14
  218  O14           *s      14
  219  O14           *s      14
  220  O14           2px     14
  221  O14           *px     14
  222  O14           *px     14
  223  O14           2py     14
  224  O14           *py     14
  225  O14           *py     14
  226  O14           2pz     14
  227  O14           *pz     14
  228  O14           *pz     14
  229  O14           *d2-    14
  230  O14           *d2-    14
  231  O14           *d1-    14
  232  O14           *d1-    14
  233  O14           *d0     14
  234  O14           *d0     14
  235  O14           *d1+    14
  236  O14           *d1+    14
  237  O14           *d2+    14
  238  O14           *d2+    14
  239  B15           1s      15
  240  B15           2s      15
  241  B15           *s      15
  242  B15           *s      15
  243  B15           2px     15
  244  B15           *px     15
  245  B15           *px     15
  246  B15           2py     15
  247  B15           *py     15
  248  B15           *py     15
  249  B15           2pz     15
  250  B15           *pz     15
  251  B15           *pz     15
  252  B15           *d2-    15
  253  B15           *d2-    15
  254  B15           *d1-    15
  255  B15           *d1-    15
  256  B15           *d0     15
  257  B15           *d0     15
  258  B15           *d1+    15
  259  B15           *d1+    15
  260  B15           *d2+    15
  261  B15           *d2+    15
  262  F16           1s      16
  263  F16           2s      16
  264  F16           *s      16
  265  F16           *s      16
  266  F16           2px     16
  267  F16           *px     16
  268  F16           *px     16
  269  F16           2py     16
  270  F16           *py     16
  271  F16           *py     16
  272  F16           2pz     16
  273  F16           *pz     16
  274  F16           *pz     16
  275  F16           *d2-    16
  276  F16           *d2-    16
  277  F16           *d1-    16
  278  F16           *d1-    16
  279  F16           *d0     16
  280  F16           *d0     16
  281  F16           *d1+    16
  282  F16           *d1+    16
  283  F16           *d2+    16
  284  F16           *d2+    16
  285  F17           1s      17
  286  F17           2s      17
  287  F17           *s      17
  288  F17           *s      17
  289  F17           2px     17
  290  F17           *px     17
  291  F17           *px     17
  292  F17           2py     17
  293  F17           *py     17
  294  F17           *py     17
  295  F17           2pz     17
  296  F17           *pz     17
  297  F17           *pz     17
  298  F17           *d2-    17
  299  F17           *d2-    17
  300  F17           *d1-    17
  301  F17           *d1-    17
  302  F17           *d0     17
  303  F17           *d0     17
  304  F17           *d1+    17
  305  F17           *d1+    17
  306  F17           *d2+    17
  307  F17           *d2+    17
  308  F18           1s      18
  309  F18           2s      18
  310  F18           *s      18
  311  F18           *s      18
  312  F18           2px     18
  313  F18           *px     18
  314  F18           *px     18
  315  F18           2py     18
  316  F18           *py     18
  317  F18           *py     18
  318  F18           2pz     18
  319  F18           *pz     18
  320  F18           *pz     18
  321  F18           *d2-    18
  322  F18           *d2-    18
  323  F18           *d1-    18
  324  F18           *d1-    18
  325  F18           *d0     18
  326  F18           *d0     18
  327  F18           *d1+    18
  328  F18           *d1+    18
  329  F18           *d2+    18
  330  F18           *d2+    18

      Basis set specifications :
      Symmetry species        a  
      Basis functions         330
--


            Nuclear Potential Energy            680.17213133 au


      Basis set specifications :
      Symmetry species         a  
      Basis functions          330


Seward processing 2-center and 3-center ERIs

 2-center integrals:
      CPU time :    2.29 sec.
      Wall time:    4.25 sec.
 3-center integrals:
      CPU time :   12.65 sec.
      Wall time:   13.12 sec.
 Block-transpose:
      CPU time :    0.19 sec.
      Wall time:    1.41 sec.
 Diagonal vector:
      CPU time :    0.12 sec.
      Wall time:    0.12 sec.
      RI vectors              1691



  Input file to MOLDEN was generated!

++ I/O STATISTICS
 
  I. General I/O information
  - - - - - - - - - - - - - - - - - - - - - - - - - - - - - - - - - - - - - - - - - - -
  Unit  Name          Flsize      Write/Read            MBytes           Write/Read
                      (MBytes)       Calls              In/Out           Time, sec.
  - - - - - - - - - - - - - - - - - - - - - - - - - - - - - - - - - - - - - - - - - - -
   1  RUNFILE          14.90 .    1589/    9669 .     25.8/    100.7 .       0/       0
   2  NQGRID            0.00 .       2/       0 .      0.0/      0.0 .       0/       0
   3  ONEINT           13.44 .      62/     502 .     56.7/     25.4 .       0/       0
   4  AVEC00            0.00 .    1692/    3383 .     32.7/     65.4 .       0/       0
   5  ZMAT00            0.00 .       1/       0 .     21.8/      0.0 .       0/       0
   6  AMAT00           10.91 .       2/       1 .     21.8/     10.9 .       0/       0
   7  QMAT00            0.00 .       1/       1 .     10.9/     10.9 .       0/       0
   8  QVEC00           21.82 .    1691/       1 .     21.8/     21.8 .       1/       0
   9  RVEC00          704.60 .    1176/    1176 .    704.6/    704.6 .       0/       0
  10  CHRED             0.85 .       4/       0 .      0.9/      0.0 .       0/       0
  11  CHVEC1          704.60 .       1/       0 .    704.6/      0.0 .       0/       0
  12  CHORST            0.06 .      12/       0 .      0.1/      0.0 .       0/       0
  13  CHOMAP            0.01 .       1/       0 .      0.0/      0.0 .       0/       0
  14  CHODIAG           0.42 .       1/       0 .      0.4/      0.0 .       0/       0
  - - - - - - - - - - - - - - - - - - - - - - - - - - - - - - - - - - - - - - - - - - -
   *  TOTAL          1471.62 .    6235/   14733 .   1602.1/    939.8 .       2/       0
  - - - - - - - - - - - - - - - - - - - - - - - - - - - - - - - - - - - - - - - - - - -
 
  II. I/O Access Patterns
  - - - - - - - - - - - - - - - - - - - -
  Unit  Name               % of random
                         Write/Read calls
  - - - - - - - - - - - - - - - - - - - -
   1  RUNFILE             28.6/  10.4
   2  NQGRID              50.0/   0.0
   3  ONEINT              95.2/   3.0
   4  AVEC00              99.9/ 100.0
   5  ZMAT00               0.0/   0.0
   6  AMAT00              50.0/ 100.0
   7  QMAT00               0.0/ 100.0
   8  QVEC00               0.0/ 100.0
   9  RVEC00               0.0/   0.1
  10  CHRED                0.0/   0.0
  11  CHVEC1               0.0/   0.0
  12  CHORST               0.0/   0.0
  13  CHOMAP               0.0/   0.0
  14  CHODIAG              0.0/   0.0
  - - - - - - - - - - - - - - - - - - - -
--
--- Stop Module: seward at Wed Nov 29 17:01:27 2023 /rc=_RC_ALL_IS_WELL_ ---
--- Module seward spent 22 seconds ---

--- Start Module: rasscf at Wed Nov 29 17:01:27 2023 ---

()()()()()()()()()()()()()()()()()()()()()()()()()()()()()()()()()()()()()()()()()()()()()()()()()()

                                              &RASSCF

                                   only a single process is used
                       available to each process: 2.9 GB of memory, 1 thread
                                             pid: 64528
()()()()()()()()()()()()()()()()()()()()()()()()()()()()()()()()()()()()()()()()()()()()()()()()()()

  Orbital specification was read from input.

      Header of the ONEINT file:
      --------------------------
      
      Integrals generated by seward 4.2.0  , Wed Nov 29 17:01:05 2023


      OrdInt status: non-squared


      Cartesian coordinates in Angstrom:
      -----------------------------------------------------
      No.  Label        X            Y            Z        
      -----------------------------------------------------
       1   C1        -3.39432700   0.25981400  -0.00000400
       2   C2        -3.00953500  -1.05293800   0.00002400
       3   C3        -1.69227100  -1.57409100   0.00005100
       4   C4        -2.55880700   1.40272900   0.00002500
       5   C5        -0.47869600  -0.94242700  -0.00004900
       6   C6        -1.19549700   1.49443300  -0.00006000
       7   H7        -4.46465000   0.45669700  -0.00003400
       8   H8        -3.80676800  -1.79389800   0.00000900
       9   H9        -1.63517800  -2.66180900   0.00009700
      10   H10       -3.08410900   2.35682300   0.00012200
      11   H11        0.40402600  -1.57364000  -0.00024400
      12   H12       -0.76119600   2.49244700  -0.00002900
      13   C13       -0.19745700   0.46485900  -0.00017400
      14   O14        0.99748200   0.89668200  -0.00033700
      15   B15        2.27049800  -0.02255700   0.00000400
      16   F16        2.18634800  -0.79879700  -1.14830500
      17   F17        2.18628100  -0.79758500   1.14914700
      18   F18        3.31349000   0.85732000  -0.00041100
      -----------------------------------------------------
      Nuclear repulsion energy =  680.17213133

++    Wave function specifications:
      -----------------------------

      Number of closed shell electrons          80
      Number of electrons in active shells       8
      Max number of holes in RAS1 space          0
      Max nr of electrons in RAS3 space          0
      Number of inactive orbitals               40
      Number of active orbitals                  6
      Number of secondary orbitals             284
      Spin quantum number                      0.0
      State symmetry                             1
--

++    Orbital specifications:
      -----------------------

      Symmetry species                           1
                                                 a
      Frozen orbitals                            0
      Inactive orbitals                         40
      Active orbitals                            6
      RAS1 orbitals                              0
      RAS2 orbitals                              6
      RAS3 orbitals                              0
      Secondary orbitals                       284
      Deleted orbitals                           0
      Number of basis functions                330
--

++    CI expansion specifications:
      ----------------------------

      Number of CSFs                           105
      Number of determinants                   120
      Number of root(s) required                 4
      Root chosen for geometry opt.              1
      CI roots used                              1     2     3     4
      weights                                0.250 0.250 0.250 0.250
      highest root included in the CI            4
      max. size of the explicit Hamiltonian    105
--

++    Optimization specifications:
      ----------------------------

      RASSCF algorithm: LK RI/DF
      Maximum number of macro iterations       200
      Maximum number of SX iterations          100
      Threshold for RASSCF energy            0.100E-07
      Threshold for max MO rotation          0.100E+00
      Threshold for max BLB element          0.100E-03
      Level shift parameter                  0.500E+00
      Make Quasi-Newton update
--

      The MO-coefficients are taken from the file:
      /scratch/albano.b/tropone/s0-opt/aug-cc-pvdz/8-6-1/sa4/bf3-tropone.StrOrb                                                       
      Title: RASSCF average (pseudo-natural) orbitals                                      

      Total molecular charge    0.00

      ************************************************************************************************************************
      *                                                                                                                      *
      *                                            Wave function control section                                             *
      *                                                                                                                      *
      ************************************************************************************************************************


                                         RASSCF iterations: Energy and convergence statistics
                                         ----------------------------------------------------

      Iter CI   SX   CI       RASSCF       Energy    max ROT     max BLB   max BLB  Level Ln srch  Step   QN   Walltime
          iter iter root      energy       change     param      element    value   shift minimum  type update hh:mm:ss
 Nr of preliminary CI iterations:   1
        1   1    6    0  -666.55065962    0.00E+00  -0.32E-01   41  83 1 -0.61E-02*  0.32   0.00    SX    NO    0:00:26
        2   1    5    0  -666.55135287   -0.69E-03* -0.14E-01   31  44 1  0.21E-02*  0.32   0.00    SX    NO    0:00:13
        3   1    5    0  -666.55153764   -0.18E-03*  0.12E-01   41  83 1 -0.14E-02*  0.32   0.00    SX    NO    0:00:14
        4   1    5    0  -666.55163204   -0.94E-04*  0.79E-02   37  44 1 -0.11E-02*  0.32   0.00    SX    NO    0:00:13
        5   1    5    0  -666.55168296   -0.51E-04*  0.30E-01   46  78 1  0.78E-03*  0.32   2.50    QN   YES    0:00:14
        6   1    5    0  -666.55176538   -0.82E-04* -0.75E-02   46  83 1 -0.51E-03*  0.32   1.14    QN   YES    0:00:14
        7   1    5    0  -666.55177375   -0.84E-05* -0.11E-01   46  83 1 -0.38E-03*  0.32   2.50    LS   YES    0:00:15
        8   1    5    0  -666.55177902   -0.53E-05*  0.83E-02   37  44 1  0.43E-03*  0.32   1.35    QN   YES    0:00:15
        9   1    5    0  -666.55179067   -0.12E-04*  0.27E-01   37  44 1  0.36E-03*  0.32   1.74    QN   YES    0:00:15
       10   1    5    0  -666.55181406   -0.23E-04* -0.21E-01   41  83 1 -0.50E-03*  0.32   1.14    QN   YES    0:00:15
       11   1    5    0  -666.55182567   -0.12E-04* -0.43E-01   43  80 1  0.52E-03*  0.32   1.87    QN   YES    0:00:15
       12   1    5    0  -666.55184558   -0.20E-04* -0.22E-02   43  80 1  0.56E-03*  0.32   0.93    QN   YES    0:00:14
       13   1    5    0  -666.55185341   -0.78E-05* -0.33E-02   22 127 1  0.69E-03*  0.32   2.50    LS   YES    0:00:14
       14   1    5    0  -666.55184909    0.43E-05*  0.99E-02   22 127 1  0.80E-03*  0.32   0.28    QN   YES    0:00:13
       15   1    5    0  -666.55186042   -0.11E-04*  0.10E-01   22 127 1  0.38E-03*  0.32   1.35    QN   YES    0:00:13
       16   1    5    0  -666.55186694   -0.65E-05*  0.20E-01   22 127 1  0.27E-03*  0.32   1.27    QN   YES    0:00:13
       17   1    5    0  -666.55187546   -0.85E-05*  0.57E-02   22 127 1 -0.21E-03*  0.32   0.91    QN   YES    0:00:13
       18   1    5    0  -666.55187496    0.50E-06*  0.27E-02   22 127 1  0.30E-03*  0.32   0.32    LS   YES    0:00:12
       19   1    5    0  -666.55187535   -0.39E-06*  0.40E-02   22 127 1  0.11E-03*  0.32   2.50    LS   YES    0:00:12
       20   1    5    0  -666.55187542   -0.71E-07* -0.15E-02   41  83 1 -0.15E-03*  0.32   0.70    QN   YES    0:00:13
       21   1    5    0  -666.55187648   -0.11E-05* -0.39E-02   22 127 1  0.11E-03*  0.32   1.35    QN   YES    0:00:12
       22   1    5    0  -666.55187688   -0.39E-06* -0.12E-02   22 127 1 -0.10E-03*  0.32   0.68    QN   YES    0:00:12
       23   1    4    0  -666.55187711   -0.23E-06* -0.18E-02   37  46 1  0.31E-04   0.32   2.50    LS   YES    0:00:12
       24   1    5    0  -666.55187676    0.35E-06* -0.11E-02   22 127 1  0.82E-04   0.32   0.10    LS   YES    0:00:12
       25   1    4    0  -666.55187708   -0.32E-06*  0.43E-03   22 127 1  0.56E-04   0.32   1.50    QN   YES    0:00:13
       26   1    4    0  -666.55187720   -0.12E-06*  0.38E-03   22 127 1 -0.20E-04   0.32   0.99    QN   YES    0:00:13
       27   1    4    0  -666.55187727   -0.61E-07* -0.11E-02   45  83 1  0.16E-04   0.32   1.93    QN   YES    0:00:13
       28   1    4    0  -666.55187733   -0.60E-07*  0.46E-03   39 127 1  0.17E-04   0.32   1.11    QN   YES    0:00:13
       29   1    4    0  -666.55187735   -0.24E-07*  0.69E-03   43  80 1  0.20E-04   0.32   2.50    LS   YES    0:00:13
       30   1    4    0  -666.55187735   -0.37E-08   0.16E-03   43  80 1  0.36E-04   0.32   0.63    QN   YES    0:00:13
      Convergence after 30 iterations
       31   1    4    0  -666.55187738   -0.24E-07*  0.16E-03   22 127 1  0.11E-04   0.32   0.63    QN   YES    0:00:13

      ************************************************************************************************************************
                                                      Wave function printout:
                       occupation of active orbitals, and spin coupling of open shells (u,d: Spin up or down)
      ************************************************************************************************************************

      Note: transformation to natural orbitals
      has been made, which may change the order of the CSFs.

      printout of CI-coefficients larger than  0.05 for root  1
      energy=    -666.703176
      conf/sym  111111     Coeff  Weight
             1  222200  -0.95047 0.90338
             3  222020   0.08926 0.00797
             4  222u0d   0.18637 0.03473
             6  222002   0.10655 0.01135
            11  22uudd   0.08188 0.00670
            24  u22d20  -0.07302 0.00533
            25  u2220d   0.06216 0.00386
            31  220220   0.08285 0.00686
            64  022202   0.05628 0.00317
            70  u2u2dd   0.06500 0.00422

      printout of CI-coefficients larger than  0.05 for root  2
      energy=    -666.523784
      conf/sym  111111     Coeff  Weight
             2  222ud0   0.91532 0.83782
             4  222u0d  -0.17290 0.02989
             5  2220ud   0.16776 0.02814
             8  22ud20  -0.08220 0.00676
             9  22u20d  -0.15907 0.02530
            12  22u02d  -0.07681 0.00590
            23  u222d0   0.10269 0.01055
            26  u22dud   0.09010 0.00812
            27  u22udd  -0.14039 0.01971
            32  2202ud  -0.07805 0.00609
            35  220ud2  -0.06770 0.00458
            65  022ud2  -0.06840 0.00468
            71  u2ud2d  -0.05031 0.00253

      printout of CI-coefficients larger than  0.05 for root  3
      energy=    -666.492861
      conf/sym  111111     Coeff  Weight
             1  222200   0.10832 0.01173
             2  222ud0   0.14911 0.02223
             3  222020  -0.06918 0.00479
             4  222u0d   0.77806 0.60537
             6  222002  -0.15715 0.02470
             7  22u2d0   0.45817 0.20992
             8  22ud20  -0.05255 0.00276
             9  22u20d  -0.08711 0.00759
            10  22udud  -0.17727 0.03142
            11  22uudd  -0.06132 0.00376
            25  u2220d  -0.10585 0.01120
            29  u22d02   0.19440 0.03779
            34  220202  -0.05915 0.00350
            44  u2d2ud  -0.05913 0.00350
            70  u2u2dd  -0.06047 0.00366

      printout of CI-coefficients larger than  0.05 for root  4
      energy=    -666.487687
      conf/sym  111111     Coeff  Weight
            15  2u22d0  -0.05710 0.00326
            17  2u220d  -0.96019 0.92197
            20  2u202d   0.06521 0.00425
            21  2u2d02  -0.16386 0.02685
            38  2ud2ud   0.08330 0.00694
            41  2udud2   0.06094 0.00371
            58  ud2202  -0.07799 0.00608
            74  uu2d2d   0.05783 0.00334
            76  2u022d   0.09306 0.00866
            86  udu2d2   0.06530 0.00426

      Natural orbitals and occupation numbers for root  1
      sym 1:   1.981411   1.999924   1.964507   1.931135   0.061743   0.061280

      Natural orbitals and occupation numbers for root  2
      sym 1:   1.965424   1.999864   1.932790   1.033923   0.974970   0.093029

      Natural orbitals and occupation numbers for root  3
      sym 1:   1.951776   1.999754   1.716562   1.242038   0.288895   0.800975

      Natural orbitals and occupation numbers for root  4
      sym 1:   1.999958   0.999998   1.963396   1.964224   0.061825   1.010599

      ************************************************************************************************************************
      *                                                                                                                      *
      *                                                    Final results                                                     *
      *                                                                                                                      *
      ************************************************************************************************************************


++    Wave function specifications:
      -----------------------------

      Number of closed shell electrons          80
      Number of electrons in active shells       8
      Max number of holes in RAS1 space          0
      Max nr of electrons in RAS3 space          0
      Number of inactive orbitals               40
      Number of active orbitals                  6
      Number of secondary orbitals             284
      Spin quantum number                      0.0
      State symmetry                             1
--

++    Orbital specifications:
      -----------------------

      Symmetry species                           1
                                                 a
      Frozen orbitals                            0
      Inactive orbitals                         40
      Active orbitals                            6
      RAS1 orbitals                              0
      RAS2 orbitals                              6
      RAS3 orbitals                              0
      Secondary orbitals                       284
      Deleted orbitals                           0
      Number of basis functions                330
--

++    CI expansion specifications:
      ----------------------------

      Number of CSFs                           105
      Number of determinants                   120
      Number of root(s) required                 4
      CI roots used                              1     2     3     4
      weights                                0.250 0.250 0.250 0.250
      highest root included in the CI            4
      Root passed to geometry opt.               1
--

++    Final optimization conditions:
      ------------------------------

      Average CI energy                            -666.55187738
      RASSCF energy for state  1                   -666.70317620
      Super-CI energy                                -0.00000002
      RASSCF energy change                           -0.00000002
      Max change in MO coefficients              -0.126E-03
      Max non-diagonal density matrix element     0.157E-03
      Maximum BLB matrix element                  0.113E-04
      (orbital pair  22, 127 in symmetry   1)
      Norm of electronic gradient            0.157E+00
--


      Final state energy(ies):
      ------------------------

::    RASSCF root number  1 Total energy:   -666.70317620
::    RASSCF root number  2 Total energy:   -666.52378438
::    RASSCF root number  3 Total energy:   -666.49286146
::    RASSCF root number  4 Total energy:   -666.48768747

++    Molecular orbitals:
      -------------------

      Pseudonatural active orbitals and approximate occupation numbers


      MOLECULAR ORBITALS FOR SYMMETRY SPECIES 1: a  

      INDEX  ENERGY  OCCUPATION COEFFICIENTS ...
          1  -26.2651    2.0000                                                                                                           
               262 F16    1s     ( 0.9939) 285 F17    1s     (-0.1173)
          2  -26.2651    2.0000                                                                                                           
               262 F16    1s     ( 0.1176) 285 F17    1s     ( 0.9940)
          3  -26.2559    2.0000                                                                                                           
               308 F18    1s     ( 1.0008)
          4  -20.6835    2.0000                                                                                                           
               216 O14    1s     ( 1.0017)
          5  -11.3654    2.0000                                                                                                           
               193 C13    1s     ( 1.0040)
          6  -11.3046    2.0000                                                                                                           
                70 C4     1s     ( 0.3237) 116 C6     1s     ( 0.9491)
          7  -11.3025    2.0000                                                                                                           
                 1 C1     1s     ( 0.2474)  24 C2     1s     ( 0.1588)  70 C4     1s     ( 0.9046) 116 C6     1s     (-0.3196)
      
          8  -11.3017    2.0000                                                                                                           
                 1 C1     1s     ( 0.3001)  24 C2     1s     ( 0.8872)  47 C3     1s     ( 0.2209)  70 C4     1s     (-0.2251)
                93 C5     1s     ( 0.1632)
          9  -11.3010    2.0000                                                                                                           
                 1 C1     1s     (-0.1177)  24 C2     1s     (-0.1903)  47 C3     1s     ( 0.2775)  93 C5     1s     ( 0.9371)
      
         10  -11.2998    2.0000                                                                                                           
                 1 C1     1s     (-0.9086)  24 C2     1s     ( 0.3316)  47 C3     1s     ( 0.1702)  70 C4     1s     ( 0.1771)
                93 C5     1s     (-0.1058)
         11  -11.2988    2.0000                                                                                                           
                 1 C1     1s     ( 0.1239)  24 C2     1s     (-0.2209)  47 C3     1s     ( 0.9231)  93 C5     1s     (-0.3021)
      
         12   -7.7406    2.0000                                                                                                           
               239 B15    1s     ( 1.0045)
         13   -1.6004    2.0000                                                                                                           
                 3 C1     *s     ( 0.1064)  50 C3     *s     (-0.3135)  52 C3     *px    ( 0.1843)  73 C4     *s     ( 0.1836)
                96 C5     *s     ( 0.3724)  98 C5     *px    ( 0.1311)  99 C5     *px    (-0.1031) 101 C5     *py    ( 0.1643)
[...]
ATVX     1  Mu1.0001  Se1.077                       0.20520544      0.00043665     -0.00108354     -0.00000047
ATVX     1  Mu1.0002  Se1.077                       0.28348229      0.00000118     -0.00000245     -0.00000000
ATVX     1  Mu1.0003  Se1.077                       0.29694889     -0.00000789      0.00001855     -0.00000000
ATVX     1  Mu1.0001  Se1.078                       0.22104804     -0.00023897      0.00058395     -0.00000014
ATVX     1  Mu1.0002  Se1.078                       0.29932488     -0.00000089      0.00000186     -0.00000000
ATVX     1  Mu1.0001  Se1.079                       0.22909344      0.00009905     -0.00023289     -0.00000002
ATVX     1  Mu1.0001  Se1.080                       0.23537602     -0.00000808      0.00001870     -0.00000000
ATVX     1  Mu1.0001  Se1.081                       0.24682987     -0.00076834      0.00174131     -0.00000134
ATVX     1  Mu1.0001  Se1.082                       0.25466067      0.00022655     -0.00050781     -0.00000012
ATVX     1  Mu1.0001  Se1.083                       0.26220743      0.00000678     -0.00001478     -0.00000000
ATVX     1  Mu1.0001  Se1.084                       0.26467299     -0.00048809      0.00105467     -0.00000051
ATVX     1  Mu1.0001  Se1.085                       0.26838007     -0.00126904      0.00273539     -0.00000347
ATVX     1  Mu1.0001  Se1.086                       0.27966042     -0.00037604      0.00078881     -0.00000030
ATVX     1  Mu1.0001  Se1.087                       0.28259547     -0.00000241      0.00000510     -0.00000000
ATVX     1  Mu1.0001  Se1.088                       0.28862004      0.00071603     -0.00148210     -0.00000106
ATVX     1  Mu1.0001  Se1.089                       0.29363398     -0.00000489      0.00000997     -0.00000000
ATVX     1  Mu1.0001  Se1.090                       0.29750699     -0.00020967      0.00043260     -0.00000009
AIVX     1  Mu1.0001  In1.034 Se1.047               0.29642324     -0.00000089      0.00000184     -0.00000000
AIVX     1  Mu1.0001  In1.035 Se1.047               0.29540574      0.00006385     -0.00012200     -0.00000001
AIVX     1  Mu1.0001  In1.036 Se1.047               0.27485944      0.00000023     -0.00000046     -0.00000000
AIVX     1  Mu1.0001  In1.037 Se1.047               0.27178237     -0.00003734      0.00007018     -0.00000000
AIVX     1  Mu1.0001  In1.038 Se1.047               0.26330762      0.00000039     -0.00000085     -0.00000000
AIVX     1  Mu1.0001  In1.039 Se1.047               0.25873482     -0.00000806      0.00001801     -0.00000000
AIVX     1  Mu1.0001  In1.040 Se1.047               0.24718097     -0.00000084      0.00000187     -0.00000000
AIVX     1  Mu1.0001  In1.036 Se1.048               0.28624793     -0.00000054      0.00000108     -0.00000000
AIVX     1  Mu1.0001  In1.037 Se1.048               0.28317085      0.00001356     -0.00002955     -0.00000000
AIVX     1  Mu1.0001  In1.038 Se1.048               0.27469611     -0.00000091      0.00000195     -0.00000000
AIVX     1  Mu1.0001  In1.039 Se1.048               0.27012331     -0.00000084      0.00000407     -0.00000000
AIVX     1  Mu1.0001  In1.040 Se1.048               0.25856945     -0.00000023      0.00000049     -0.00000000
AIVX     1  Mu1.0001  In1.036 Se1.049               0.29689503     -0.00000038      0.00000076     -0.00000000
AIVX     1  Mu1.0001  In1.037 Se1.049               0.29381795     -0.00005049      0.00009702     -0.00000000
AIVX     1  Mu1.0001  In1.038 Se1.049               0.28534321     -0.00000213      0.00000433     -0.00000000
AIVX     1  Mu1.0001  In1.039 Se1.049               0.28077041     -0.00001350      0.00003000     -0.00000000
AIVX     1  Mu1.0001  In1.040 Se1.049               0.26921655     -0.00000055      0.00000120     -0.00000000
AIVX     1  Mu1.0001  In1.038 Se1.050               0.29948296     -0.00000097      0.00000195     -0.00000000
AIVX     1  Mu1.0001  In1.039 Se1.050               0.29491015     -0.00000619      0.00001458     -0.00000000
AIVX     1  Mu1.0001  In1.040 Se1.050               0.28335630      0.00000146     -0.00000305     -0.00000000
AIVX     1  Mu1.0001  In1.040 Se1.051               0.29124243     -0.00000041      0.00000089     -0.00000000
--

   (Skipping property calculation,
    use PROP keyword to activate)

********************************************************************************
  CASPT2 MULTI-STATE COUPLINGS SECTION

 Hamiltonian Effective Couplings
 -------------------------------

                 |    4 > 
 <    1 |   6.86400863433005E-07
 <    2 |  -1.05090351877936E-04
 <    3 |   9.65285637577066E-06
 <    4 |  -6.68323217826346E+02

Time spent for multi-state couplings for root    4:
 ----------------- CPU TIME  -------- WALL TIME
 <    1 |             0.500               0.620
 <    2 |             0.500               0.620
 <    3 |             0.490               0.620
 <    4 |             0.000               0.000

  CASPT2 TIMING INFO FOR STATE      4

                         cpu time  (s)  wall time (s) 
                         -------------  ------------- 

  Group initialization            0.00          0.00
  - Fock matrix build             0.00          0.00
  - integral transforms           0.00          0.00
  State initialization            0.00          0.00
  - density matrices              0.00          0.00
  CASPT2 equations               66.50         83.48
  - H0 S/B matrices               0.00          0.00
  - H0 S/B diag                   0.04          0.04
  - H0 NA diag                    0.01          0.01
  - RHS construction             11.64         12.02
  - PCG solver                   54.72         71.19
    - scaling                     0.18          4.26
    - lin. comb.                  0.48         15.37
    - inner products              0.74         13.71
    - basis transforms            0.85         12.45
    - sigma routines             51.41        229.94
  - array collection              0.00          0.00
  Properties                      0.00          0.00
  Gradient/MS coupling            1.49          1.91
 Total time                      67.99         85.39

--


  Total CASPT2 energies:
::    CASPT2 Root  1     Total energy:   -668.50051962
::    CASPT2 Root  2     Total energy:   -668.31512336
::    CASPT2 Root  3     Total energy:   -668.32435062
::    CASPT2 Root  4     Total energy:   -668.32321757

  Note that these CASPT2 energies are obtained using
  the XMS Fock operator and thus do not correspond
  to the true single-state CASPT2 ones.

  Relative CASPT2 energies:
 Root          (a.u.)       (eV)    (cm^-1)   (kJ/mol)
    1      0.00000000       0.00        0.0       0.00
    2      0.18539626       5.04    40689.8     486.76
    3      0.17616900       4.79    38664.6     462.53
    4      0.17730205       4.82    38913.3     465.51

++ Multi-State CASPT2 section:
********************************************************************************
  MULTI-STATE CASPT2 SECTION
--------------------------------------------------------------------------------

  Output diagonal energies have been shifted. Add   -668.00000000000000     
  Effective Hamiltonian matrix (Asymmetric):

                1               2               3               4
   1        -0.49541759      0.00212180      0.02117068      0.00000069
   2         0.00491931     -0.30947796     -0.00681150     -0.00010509
   3         0.02403188     -0.00425944     -0.33509779      0.00000965
   4        -0.00001154     -0.00005792      0.00001320     -0.32321783

  Effective Hamiltonian matrix (Symmetric):

                1               2               3               4
   1        -0.49541759
   2         0.00352056     -0.30947796
   3         0.02260128     -0.00553547     -0.33509779
   4        -0.00000543     -0.00008150      0.00001143     -0.32321783

       Total XMS-CASPT2 energies:
::    XMS-CASPT2 Root  1     Total energy:   -668.49863828
::    XMS-CASPT2 Root  2     Total energy:   -668.33302954
::    XMS-CASPT2 Root  3     Total energy:   -668.32321827
::    XMS-CASPT2 Root  4     Total energy:   -668.30832508

       Eigenvectors:
            0.99023188      0.13926878     -0.00015876     -0.00670923
           -0.02245662      0.20679771      0.00525212      0.97811187
           -0.13761007      0.96842060     -0.00178753     -0.20789855
            0.00002918      0.00066708      0.99998460     -0.00550993

       In terms of the input states:
            0.99974216     -0.01990601      0.00000787     -0.01092552
            0.02196394      0.72563555      0.00150918      0.68772694
            0.00576206      0.68779037     -0.00318104     -0.72587952
           -0.00002268      0.00109294      0.99999380     -0.00334689

--

  Relative (X)MS-CASPT2 energies:
 Root          (a.u.)       (eV)    (cm^-1)   (kJ/mol)
    1      0.00000000       0.00        0.0       0.00
    2      0.16560873       4.51    36346.9     434.81
    3      0.17542000       4.77    38500.2     460.57
    4      0.19031320       5.18    41768.9     499.67

  THE ORIGINAL CI ARRAYS ARE NOW MIXED AS LINEAR
  COMBINATIONS, GIVEN BY THE EIGENVECTORS.
  A NEW JOBIPH FILE NAMED 'JOBMIX' IS PREPARED.
********************************************************************************

++ Mixed CI coefficients:
  The CI coefficients for the MIXED state nr.   1
--------------------------------------------------------------------------------
 CI COEFFICIENTS LARGER THAN  0.50D-01
  Occupation of active orbitals, and spin coupling
  of open shells. (u,d: Spin up or down).
  SGUGA info is (Midvert:IsyUp:UpperWalk/LowerWalk)
        Conf  SGUGA info        Occupation    Coefficient         Weight
           1  ( 1:1:   1/   1)   222200         -0.922171       0.850400
           2  ( 1:1:   2/   1)   222ud0         -0.250906       0.062954
           3  ( 1:1:   3/   1)   222020          0.101068       0.010215
           4  ( 1:1:   4/   1)   222u0d          0.108275       0.011723
           6  ( 1:1:   6/   1)   222002          0.066873       0.004472
           7  ( 2:1:   1/   1)   22u2d0         -0.080857       0.006538
          10  ( 2:1:   4/   1)   22udud         -0.088634       0.007856
          11  ( 2:1:   5/   1)   22uudd          0.095261       0.009075
          23  ( 2:1:   1/   3)   u222d0          0.080028       0.006405
          26  ( 2:1:   4/   3)   u22dud         -0.055594       0.003091
          31  ( 3:1:   1/   1)   220220          0.068931       0.004752
          34  ( 3:1:   4/   1)   220202          0.079515       0.006323

  The CI coefficients for the MIXED state nr.   2
--------------------------------------------------------------------------------
 CI COEFFICIENTS LARGER THAN  0.50D-01
  Occupation of active orbitals, and spin coupling
  of open shells. (u,d: Spin up or down).
  SGUGA info is (Midvert:IsyUp:UpperWalk/LowerWalk)
        Conf  SGUGA info        Occupation    Coefficient         Weight
           1  ( 1:1:   1/   1)   222200         -0.219907       0.048359
           2  ( 1:1:   2/   1)   222ud0          0.856500       0.733591
           3  ( 1:1:   3/   1)   222020          0.072030       0.005188
           4  ( 1:1:   4/   1)   222u0d         -0.064243       0.004127
           5  ( 1:1:   5/   1)   2220ud         -0.088967       0.007915
           7  ( 2:1:   1/   1)   22u2d0         -0.203937       0.041590
           8  ( 2:1:   2/   1)   22ud20         -0.114249       0.013053
           9  ( 2:1:   3/   1)   22u20d         -0.163789       0.026827
          10  ( 2:1:   4/   1)   22udud          0.098938       0.009789
          13  ( 2:1:   7/   1)   22ud02         -0.060052       0.003606
          23  ( 2:1:   1/   3)   u222d0          0.158507       0.025125
          25  ( 2:1:   3/   3)   u2220d          0.154777       0.023956
          26  ( 2:1:   4/   3)   u22dud          0.127938       0.016368
          34  ( 3:1:   4/   1)   220202          0.065686       0.004315
          43  ( 3:1:   1/   3)   u2d220         -0.068184       0.004649
          61  ( 3:1:   1/   6)   022220          0.087924       0.007731
          65  ( 3:1:   5/   6)   022ud2         -0.052938       0.002802

  The CI coefficients for the MIXED state nr.   3
--------------------------------------------------------------------------------
 CI COEFFICIENTS LARGER THAN  0.50D-01
  Occupation of active orbitals, and spin coupling
  of open shells. (u,d: Spin up or down).
  SGUGA info is (Midvert:IsyUp:UpperWalk/LowerWalk)
        Conf  SGUGA info        Occupation    Coefficient         Weight
          15  ( 2:1:   1/   2)   2u22d0         -0.942628       0.888548
          16  ( 2:1:   2/   2)   2u2d20          0.076517       0.005855
          17  ( 2:1:   3/   2)   2u220d          0.143245       0.020519
          19  ( 2:1:   5/   2)   2u2udd          0.140550       0.019754
          37  ( 3:1:   1/   2)   2ud220          0.081019       0.006564
          38  ( 3:1:   2/   2)   2ud2ud         -0.113385       0.012856
          39  ( 3:1:   3/   2)   2udu2d          0.055025       0.003028
          40  ( 3:1:   4/   2)   2ud202          0.070487       0.004968
          55  ( 3:1:   1/   5)   ud2220         -0.061690       0.003806
          56  ( 3:1:   2/   5)   ud22ud         -0.065250       0.004258
          67  ( 4:1:   1/   1)   2uu2dd         -0.053907       0.002906
          69  ( 4:1:   3/   1)   2uudd2          0.050730       0.002574
          77  ( 5:1:   2/   1)   2u02d2         -0.090513       0.008193

  The CI coefficients for the MIXED state nr.   4
--------------------------------------------------------------------------------
 CI COEFFICIENTS LARGER THAN  0.50D-01
  Occupation of active orbitals, and spin coupling
  of open shells. (u,d: Spin up or down).
  SGUGA info is (Midvert:IsyUp:UpperWalk/LowerWalk)
        Conf  SGUGA info        Occupation    Coefficient         Weight
           1  ( 1:1:   1/   1)   222200          0.055633       0.003095
           2  ( 1:1:   2/   1)   222ud0         -0.261135       0.068191
           3  ( 1:1:   3/   1)   222020          0.296994       0.088206
           4  ( 1:1:   4/   1)   222u0d         -0.578354       0.334494
           5  ( 1:1:   5/   1)   2220ud         -0.073886       0.005459
           6  ( 1:1:   6/   1)   222002         -0.147231       0.021677
           7  ( 2:1:   1/   1)   22u2d0         -0.569956       0.324850
           9  ( 2:1:   3/   1)   22u20d         -0.124437       0.015485
          10  ( 2:1:   4/   1)   22udud          0.192437       0.037032
          11  ( 2:1:   5/   1)   22uudd          0.065443       0.004283
          12  ( 2:1:   6/   1)   22u02d          0.068749       0.004726
          14  ( 2:1:   8/   1)   22u0d2         -0.062158       0.003864
          31  ( 3:1:   1/   1)   220220         -0.204420       0.041788
          33  ( 3:1:   3/   1)   220u2d         -0.082550       0.006814
          34  ( 3:1:   4/   1)   220202          0.134053       0.017970
          43  ( 3:1:   1/   3)   u2d220         -0.062337       0.003886
          45  ( 3:1:   3/   3)   u2du2d         -0.060779       0.003694

--

++ I/O STATISTICS
 
  I. General I/O information
  - - - - - - - - - - - - - - - - - - - - - - - - - - - - - - - - - - - - - - - - - - -
  Unit  Name          Flsize      Write/Read            MBytes           Write/Read
                      (MBytes)       Calls              In/Out           Time, sec.
  - - - - - - - - - - - - - - - - - - - - - - - - - - - - - - - - - - - - - - - - - - -
   1  RUNFILE          31.14 .     112/    1364 .      0.8/      9.8 .       0/       0
   2  LUSOLV            0.32 .     116/     120 .      2.0/      2.1 .       0/       0
   3  LUSBT            42.46 .     296/    3604 .     87.9/   1220.4 .       0/       0
   4  LUHLF1            0.00 .       0/       0 .      0.0/      0.0 .       0/       0
   5  LUHLF2            0.00 .       0/       0 .      0.0/      0.0 .       0/       0
   6  LUHLF3            0.00 .       0/       0 .      0.0/      0.0 .       0/       0
   7  DRARR           127.21 .       4/      32 .    127.2/   1346.9 .       0/       0
   8  DRARRT            0.00 .       0/       0 .      0.0/      0.0 .       0/       0
   9  RHS_01          370.90 .      52/     364 .   1482.9/  10380.0 .       0/       1
  10  RHS_02          370.90 .     488/    1340 .  10970.0/  36993.7 .       3/       6
  11  RHS_03          370.90 .     592/    1424 .  16272.6/  39998.2 .       3/       6
  12  RHS_04          370.90 .    1012/    3064 .  21494.3/  84330.8 .       5/      13
  13  RHS_05          370.90 .    1940/    2148 .  51667.7/  57598.4 .      14/       9
  14  RHS_06          370.90 .     120/     276 .   3004.2/   7454.9 .       0/       1
  15  H0T_01            0.00 .       0/       0 .      0.0/      0.0 .       0/       0
  16  H0T_02            0.00 .       0/       0 .      0.0/      0.0 .       0/       0
  17  H0T_03            0.00 .       0/       0 .      0.0/      0.0 .       0/       0
  18  H0T_04            0.00 .       0/       0 .      0.0/      0.0 .       0/       0
  19  LUDMAT            0.10 .      32/      28 .      0.4/      0.3 .       0/       0
  20  LUCIEX            0.01 .      12/      88 .      0.0/      0.1 .       0/       0
  21  MOLONE            3.83 .       8/       2 .      4.7/      1.7 .       0/       0
  22  MOLINT            0.00 .       0/       0 .      0.0/      0.0 .       0/       0
  23  JOBIPH           10.30 .       1/      58 .      0.0/      3.6 .       0/       0
  24  CHRED             0.85 .       0/      14 .      0.0/      3.0 .       0/       0
  25  CHVEC1          704.60 .       0/       5 .      0.0/   3523.0 .       0/       0
  26  CHORST            0.06 .       0/      12 .      0.0/      0.1 .       0/       0
  27  CHOMAP            0.01 .       0/       0 .      0.0/      0.0 .       0/       0
  28  ONEINT           13.44 .       0/     224 .      0.0/     12.5 .       0/       0
  29  JOBMIX           10.30 .      39/       0 .      2.7/      0.0 .       0/       0
  - - - - - - - - - - - - - - - - - - - - - - - - - - - - - - - - - - - - - - - - - - -
   *  TOTAL          3169.99 .    4824/   14167 . 105117.2/ 242879.4 .      28/      39
  - - - - - - - - - - - - - - - - - - - - - - - - - - - - - - - - - - - - - - - - - - -
 
  II. I/O Access Patterns
  - - - - - - - - - - - - - - - - - - - -
  Unit  Name               % of random
                         Write/Read calls
  - - - - - - - - - - - - - - - - - - - -
   1  RUNFILE             28.6/  11.1
   2  LUSOLV              40.5/  43.3
   3  LUSBT               95.6/  79.8
   4  LUHLF1               0.0/   0.0
   5  LUHLF2               0.0/   0.0
   6  LUHLF3               0.0/   0.0
   7  DRARR               50.0/  90.6
   8  DRARRT               0.0/   0.0
   9  RHS_01              30.8/  32.7
  10  RHS_02              92.6/  30.7
  11  RHS_03              93.9/  31.7
  12  RHS_04              91.7/  29.2
  13  RHS_05              79.4/  28.9
  14  RHS_06              59.2/  20.3
  15  H0T_01               0.0/   0.0
  16  H0T_02               0.0/   0.0
  17  H0T_03               0.0/   0.0
  18  H0T_04               0.0/   0.0
  19  LUDMAT              21.9/  28.6
  20  LUCIEX              41.7/  76.1
  21  MOLONE              25.0/ 100.0
  22  MOLINT               0.0/   0.0
  23  JOBIPH             100.0/  96.6
  24  CHRED                0.0/  35.7
  25  CHVEC1               0.0/  80.0
  26  CHORST               0.0/   0.0
  27  CHOMAP               0.0/   0.0
  28  ONEINT               0.0/   3.6
  29  JOBMIX              97.4/   0.0
  - - - - - - - - - - - - - - - - - - - -
--
--- Stop Module: caspt2 at Wed Nov 29 19:23:17 2023 /rc=_RC_ALL_IS_WELL_ ---
--- Module caspt2 spent 6 minutes 53 seconds ---

.##################.
.# Happy landing! #.
.##################.

    Timing: Wall=8529.85 User=6833.24 System=490.95
