   This run of MOLCAS is using the pymolcas driver

                             OPE
                             OPE          NMOL  CASOP  ENMOLC A   SO
                 OPE        NMOLC        AS  OP EN  MO LC     AS  OP
                OPENM       OL CA        SO  PE NM  OL CA     SOP EN
                OP EN      MO   LC       AS  OP ENMOL  CASO   PENMOL
                OP  EN     MO   LC       AS  OP EN     MO     LC ASO
               OP   E  NMOL  C  AS       OP  EN MO     LC     AS  OP
               OP  E   NMO   LC AS        OPEN  MO     LCASOP EN   M
               O  PEN   MO  LCA  SO
            OPE   NMO   L   CAS    OP
        OPENMOL  CASOP     ENMOL   CASOPE
     OPENMOLCA   SOPENMOLCASOPEN   MOLCASOPE
    OPENMOLCAS   OP           EN   MOL    CAS
    OPENMOLCAS       OP  ENM        O     LCA
    OPENMOLCAS    OPEN  MOLCASO     P  E  NMO
    OPENMOLCAS     OP               E  N  MOL
    OPENMOLCA   SO           PENM   O  L  CAS    OPEN    MO    LCAS
    OPENMOLCA   SOP           ENM   O  L  CAS   OP  EN  MOLC  AS   O
    OPENMOLCA   SOPE           NM      O  LCA   S      OP  EN MO
    OPENMOLC                AS         O  PEN   M      OL  CA  SOPE
    OPENMO        LCASOPE  NMOL        C  ASO   P      ENMOLC     AS
    OPE     NMO      LCA  SO     P     E   NM   OL  CA SO  PE N   MO
          OPENMOLCA            SOPE   NMO        LCAS  O    P  ENMO
     OPENMOLCASOPENMOLCASOPENMOLCASOPENMOLCA
        OPENMOLCASOPENMOLCASOPENMOLCASOPE
            OPENMOLCASOPENMOLCASOPENM
               OPENMOLCASOPENMOLCA        version: 18.09
                   OPENMOLCASO
                       OPE                tag: 548-g19e2926

 OpenMolcas is free software; you can redistribute it and/or modify it
 under the terms of the GNU Lesser General Public License version 2.1.
 OpenMolcas is distributed in the hope that it will be useful, but it
 is provided "as is" and without any express or implied warranties.
 For more details see the full text of the license in the file
 LICENSE or in <http://www.gnu.org/licenses/>.

                 Copyright (C) The OpenMolcas Authors
           For the author list and the recommended citation,
                   consult the file CONTRIBUTORS.md

           *************************************************
           * pymolcas version py2.05                       *
           *   build 41a26de10febe70f5703574ba46ae5e5      *
           *   (after the EMIL interpreter by V. Veryazov) *
           *************************************************

configuration info
------------------
C Compiler ID: GNU
C flags: -std=gnu99 -fopenmp
Fortran Compiler ID: GNU
Fortran flags: -cpp -fno-aggressive-loop-optimizations -fdefault-integer-8 -fopenmp
Definitions: _MOLCAS_;_I8_;_LINUX_;_GA_;_MOLCAS_MPP_;_OPENBLAS_
Parallel: ON (GA=ON)


   -----------------------------------------------------------------------------------------------
  |
  |           Project: dbh-x-caspt2-88-sa8
  |    Submitted from: /scratch/adaogomes.l/dbh/molcas/sa8/dbh-x-caspt2-88-sa8
  |      Scratch area: /scratch/adaogomes.l/dbh/molcas/sa8/dbh-x-caspt2-88-sa8/dbh-x-caspt2-88-sa8
  |   Save outputs to: /scratch/adaogomes.l/dbh/molcas/sa8/dbh-x-caspt2-88-sa8
  |            Molcas: /shared/centos7/molcas/18.09-2
  |
  | Scratch area is empty
  |
  |    MOLCAS_DRIVER = /shared/centos7/molcas/18.09-2/bin/pymolcas
  |    MOLCAS_NPROCS = 1
  |     MOLCAS_PRINT = 3
  |    MOLCAS_SOURCE = /shared/centos7/molcas/18.09-2
  | MOLCAS_STRUCTURE = 0
  |
   -----------------------------------------------------------------------------------------------

++ ---------   Input file   ---------

&GATEWAY
 coord=$Project.xyz
 basis=ano-s-vdzp
 group=C1
 RICD

&SEWARD
 doanalytic

&RASSCF
 FileOrb=$Project.StrOrb
 Spin=1
 Symmetry=1
 Charge=0
 NActel=8
 Ras2=8
 CIRoot=8 8 1
 Rlxroot=1

&RASSI

&CASPT2
MaxIterations=500
XMULtistate
all

-- ----------------------------------

--- Start Module: gateway at Fri Sep 23 06:53:20 2022 ---

()()()()()()()()()()()()()()()()()()()()()()()()()()()()()()()()()()()()()()()()()()()()()()()()()()

                                              &GATEWAY

                       only a single process is used, running in SERIAL mode
                       available to each process: 2.8 GB of memory, 1 thread
()()()()()()()()()()()()()()()()()()()()()()()()()()()()()()()()()()()()()()()()()()()()()()()()()()



 Basis Set     1 Label: C.ANO-S-VDZP
 Basis set is read from library:basis_library 
 Basis Set Reference(s):
     K. Pierloot, B. Dumez, P.-O. Widmark and B. O. Roos                             
     Theor. Chim. Acta 90, 87 (1995)                                                 




 Basis Set     2 Label: N.ANO-S-VDZP
 Basis set is read from library:basis_library 
 Basis Set Reference(s):
     K. Pierloot, B. Dumez, P.-O. Widmark and B. O. Roos                             
     Theor. Chim. Acta 90, 87 (1995)                                                 




 Basis Set     3 Label: H.ANO-S-VDZP
 Basis set is read from library:basis_library 
 Basis Set Reference(s):
     K. Pierloot, B. Dumez, P.-O. Widmark and B. O. Roos                             
     Theor. Chim. Acta 90, 87 (1995)                                                 




 Basis Set     5 Label: C.ANO-S-VDZP....acCD-aux-basis.
 On-the-fly basis set generation


 Basis Set     6 Label: C.ANO-S-VDZP....acCD-aux-basis.
 On-the-fly basis set generation


 Basis Set     7 Label: N.ANO-S-VDZP....acCD-aux-basis.
 On-the-fly basis set generation


 Basis Set     8 Label: N.ANO-S-VDZP....acCD-aux-basis.
 On-the-fly basis set generation


 Basis Set     9 Label: H.ANO-S-VDZP....acCD-aux-basis.
 On-the-fly basis set generation

  Weights used for alignment and distance                     
  mat. size =    15x    1
       12.0000000000000000
       12.0000000000000000
       12.0000000000000000
       12.0000000000000000
       12.0000000000000000
       14.0030740044299993
       14.0030740044299993
        1.0078250322300000
        1.0078250322300000
        1.0078250322300000
        1.0078250322300000
        1.0078250322300000
        1.0078250322300000
        1.0078250322300000
        1.0078250322300000


++    Symmetry information:
      ---------------------

                    Character Table for C1 

                             E  
                    a        1  x, y, xy, Rz, z, xz, Ry, yz, Rx, I
--


++    Basis set information:
      ----------------------


      Basis set label: C.ANO-S...3S2P1D.

      Electronic valence basis set:
      ------------------
      Associated Effective Charge   6.000000 au
      Associated Actual Charge      6.000000 au
      Nuclear Model: Point charge

      Shell  nPrim  nBasis  Cartesian Spherical Contaminant
         s      10       3        X                  
         p       6       2        X                  
         d       3       1                 X         

       Label   Cartesian Coordinates / Bohr

 C1                 2.2992558352       -1.4723555058        0.6490952235
 C2                 2.2969956471        1.4691465618        0.6509830032
 C3                -0.2927632309        2.0602529503       -0.5482651067
 C4                -0.2785221226       -2.0659819952       -0.5611525286
 C5                -0.5538504568       -0.0004075761       -2.5420006234


      Basis set label: N.ANO-S...3S2P1D.

      Electronic valence basis set:
      ------------------
      Associated Effective Charge   7.000000 au
      Associated Actual Charge      7.000000 au
      Nuclear Model: Point charge

      Shell  nPrim  nBasis  Cartesian Spherical Contaminant
         s      10       3        X                  
         p       6       2        X                  
         d       3       1                 X         

       Label   Cartesian Coordinates / Bohr

 N6                -2.1561133709        1.2207401919        1.3686625105
 N7                -2.1747659882       -1.2055037081        1.3834669652


      Basis set label: H.ANO-S...2S1P.

      Electronic valence basis set:
      ------------------
      Associated Effective Charge   1.000000 au
      Associated Actual Charge      1.000000 au
      Nuclear Model: Point charge

      Shell  nPrim  nBasis  Cartesian Spherical Contaminant
         s       7       2        X                  
         p       3       1        X                  

       Label   Cartesian Coordinates / Bohr

 H8                -2.3877214551       -0.0034574051       -3.4716162226
 H9                 0.9561749818        0.0081064715       -3.9372849720
 H10               -0.6233342502       -4.0150835225       -1.0867038643
 H11               -0.6202540155        4.0092951213       -1.0870750065
 H12                2.4422083064        2.2666190178        2.5396664904
 H13                2.4390490811       -2.2723762196        2.5370679847
 H14                3.8378096754       -2.2331072572       -0.4810159522
 H15                3.8260379855        2.2335818808       -0.4865085357
--


++    Molecular structure info:
      -------------------------

                    ************************************************ 
                    **** Cartesian Coordinates / Bohr, Angstrom **** 
                    ************************************************ 

     Center  Label                x              y              z                     x              y              z
        1      C1               2.299256      -1.472356       0.649095              1.216714      -0.779137       0.343486
        2      C2               2.296996       1.469147       0.650983              1.215518       0.777439       0.344485
        3      C3              -0.292763       2.060253      -0.548265             -0.154924       1.090239      -0.290129
        4      C4              -0.278522      -2.065982      -0.561153             -0.147388      -1.093271      -0.296949
        5      C5              -0.553850      -0.000408      -2.542001             -0.293085      -0.000216      -1.345169
        6      N6              -2.156113       1.220740       1.368663             -1.140966       0.645988       0.724265
        7      N7              -2.174766      -1.205504       1.383467             -1.150837      -0.637925       0.732099
        8      H8              -2.387721      -0.003457      -3.471616             -1.263528      -0.001830      -1.837100
        9      H9               0.956175       0.008106      -3.937285              0.505986       0.004290      -2.083521
       10      H10             -0.623334      -4.015084      -1.086704             -0.329854      -2.124691      -0.575059
       11      H11             -0.620254       4.009295      -1.087075             -0.328224       2.121628      -0.575255
       12      H12              2.442208       2.266619       2.539666              1.292361       1.199443       1.343934
       13      H13              2.439049      -2.272376       2.537068              1.290689      -1.202490       1.342559
       14      H14              3.837810      -2.233107      -0.481016              2.030881      -1.181709      -0.254543
       15      H15              3.826038       2.233582      -0.486509              2.024652       1.181961      -0.257449

                    *************************************** 
                    *    InterNuclear Distances / Bohr    * 
                    *************************************** 

               1 C1            2 C2            3 C3            4 C4            5 C5            6 N6    
    1 C1       0.000000
    2 C2       2.941504        0.000000
    3 C3       4.542197        2.914525        0.000000
    4 C4       2.908957        4.538689        4.126280        0.000000
    5 C5       4.526581        4.525711        2.879144        2.875093        0.000000
    6 N6       5.255555        4.517405        2.802047        4.248774        4.399061        0.000000
    7 N7       4.541738        5.261838        4.235409        2.849159        4.414626        2.426361
    8 H8       6.411371        6.411783        4.146533        4.144096        2.056034        4.998060
    9 H9       5.003051        4.998464        4.154107        4.150252        2.055983        6.269761
   10 H10      4.244997        6.451718        6.108102        2.047949        4.270871        5.982649
   11 H11      6.448745        4.240701        2.048495        6.107566        4.266021        4.020640
   12 H12      4.192210        2.055280        4.130130        5.982381        6.319740        4.858979
   13 H13      2.055241        4.192432        5.979444        4.126350        6.317929        5.889189
   14 H14      2.055004        4.166799        5.958112        4.120502        5.340345        7.160830
   15 H15      4.165889        2.053343        4.122909        5.944681        5.329088        6.344576

               7 N7            8 H8            9 H9           10 H10          11 H11          12 H12   
    7 N7       0.000000
    8 H8       5.006206        0.000000
    9 H9       6.291744        3.376185        0.000000
   10 H10      4.049991        4.989390        5.177521        0.000000
   11 H11      5.976137        4.991208        5.159296        8.024379        0.000000
   12 H12      5.891425        8.038469        7.018552        7.874510        5.056565        0.000000
   13 H13      4.874044        8.034301        7.022589        5.054398        7.871032        4.538997
   14 H14      6.378349        7.257566        5.027191        4.841911        7.694753        5.596406
   15 H15      7.164759        7.247484        5.009662        7.694346        4.825282        3.327734

              13 H13          14 H14          15 H15   
   13 H13      0.000000
   14 H14      3.326696        0.000000
   15 H15      5.600840        4.466708        0.000000

                    ******************************************* 
                    *    InterNuclear Distances / Angstrom    * 
                    ******************************************* 

               1 C1            2 C2            3 C3            4 C4            5 C5            6 N6    
    1 C1       0.000000
    2 C2       1.556577        0.000000
    3 C3       2.403627        1.542300        0.000000
    4 C4       1.539354        2.401771        2.183533        0.000000
    5 C5       2.395364        2.394903        1.523577        1.521434        0.000000
    6 N6       2.781120        2.390508        1.482779        2.248354        2.327883        0.000000
    7 N7       2.403384        2.784445        2.241282        1.507710        2.336119        1.283975
    8 H8       3.392752        3.392969        2.194251        2.192961        1.088007        2.644859
    9 H9       2.647500        2.645073        2.198259        2.196219        1.087980        3.317814
   10 H10      2.246356        3.414102        3.232268        1.083728        2.260048        3.165881
   11 H11      3.412529        2.244082        1.084017        3.231985        2.257481        2.127631
   12 H12      2.218422        1.087607        2.185571        3.165740        3.344263        2.571261
   13 H13      1.087587        2.218540        3.164186        2.183570        3.343304        3.116425
   14 H14      1.087461        2.204975        3.152897        2.180476        2.825989        3.789348
   15 H15      2.204494        1.086582        2.181750        3.145790        2.820032        3.357405

               7 N7            8 H8            9 H9           10 H10          11 H11          12 H12   
    7 N7       0.000000
    8 H8       2.649170        0.000000
    9 H9       3.329448        1.786600        0.000000
   10 H10      2.143163        2.640272        2.739826        0.000000
   11 H11      3.162435        2.641234        2.730182        4.246319        0.000000
   12 H12      3.117608        4.253775        3.714058        4.167011        2.675819        0.000000
   13 H13      2.579233        4.251569        3.716194        2.674672        4.165171        2.401934
   14 H14      3.375277        3.840539        2.660275        2.562229        4.071888        2.961491
   15 H15      3.791427        3.835203        2.650999        4.071673        2.553429        1.760961

              13 H13          14 H14          15 H15   
   13 H13      0.000000
   14 H14      1.760412        0.000000
   15 H15      2.963837        2.363680        0.000000

                    ************************************** 
                    *    Valence Bond Angles / Degree    * 
                    ************************************** 
                          Atom centers                 Phi
                      2 C2       1 C1       4 C4       101.75
                      2 C2       1 C1      13 H13      112.87
                      2 C2       1 C1      14 H14      111.78
                      4 C4       1 C1      13 H13      111.29
                      4 C4       1 C1      14 H14      111.05
                     13 H13      1 C1      14 H14      108.07
                      1 C1       2 C2       3 C3       101.73
                      1 C1       2 C2      12 H12      112.86
                      1 C1       2 C2      15 H15      111.80
                      3 C3       2 C2      12 H12      111.24
                      3 C3       2 C2      15 H15      110.99
                     12 H12      2 C2      15 H15      108.18
                      2 C2       3 C3       5 C5       102.73
                      2 C2       3 C3       6 N6       104.40
                      2 C2       3 C3      11 H11      116.31
                      5 C5       3 C3       6 N6       101.48
                      5 C5       3 C3      11 H11      118.97
                      6 N6       3 C3      11 H11      111.02
                      1 C1       4 C4       5 C5       103.00
                      1 C1       4 C4       7 N7       104.13
                      1 C1       4 C4      10 H10      116.76
                      5 C5       4 C4       7 N7       100.93
                      5 C5       4 C4      10 H10      119.40
                      7 N7       4 C4      10 H10      110.52
                      3 C3       5 C5       4 C4        91.63
                      3 C3       5 C5       8 H8       113.27
                      3 C3       5 C5       9 H9       113.60
                      4 C4       5 C5       8 H8       113.32
                      4 C4       5 C5       9 H9       113.59
                      8 H8       5 C5       9 H9       110.38
                      3 C3       6 N6       7 N7       107.99
                      4 C4       7 N7       6 N6       107.02

           ***************************************************************
           *              Valence Dihedral Angles / Degree               *
           ***************************************************************
                    Atom centers                       Phi1     Phi2     Theta 
           4 C4       1 C1       2 C2      12 H12       101.75   112.86   119.56
           4 C4       1 C1       2 C2      15 H15       101.75   111.80  -118.21
          13 H13      1 C1       2 C2      15 H15       112.87   111.80   122.43
          14 H14      1 C1       2 C2      15 H15       111.78   111.80     0.35
           2 C2       1 C1       4 C4       5 C5        101.75   103.00    36.80
           2 C2       1 C1       4 C4       7 N7        101.75   104.13   -68.19
           2 C2       1 C1       4 C4      10 H10       101.75   116.76   169.68
           3 C3       2 C2       1 C1       4 C4        101.73   101.75     0.28
           3 C3       2 C2       1 C1      13 H13       101.73   112.87  -119.07
           3 C3       2 C2       1 C1      14 H14       101.73   111.78   118.84
          12 H12      2 C2       1 C1      13 H13       112.86   112.87     0.20
          12 H12      2 C2       1 C1      14 H14       112.86   111.78  -121.88
           1 C1       2 C2       3 C3       5 C5        101.73   102.73   -37.19
           1 C1       2 C2       3 C3       6 N6        101.73   104.40    68.40
           1 C1       2 C2       3 C3      11 H11       101.73   116.31  -168.92
           5 C5       3 C3       2 C2      12 H12       102.73   111.24  -157.61
           5 C5       3 C3       2 C2      15 H15       102.73   110.99    81.88
           6 N6       3 C3       2 C2      12 H12       104.40   111.24   -52.03
           6 N6       3 C3       2 C2      15 H15       104.40   110.99  -172.53
          11 H11      3 C3       2 C2      12 H12       116.31   111.24    70.66
          11 H11      3 C3       2 C2      15 H15       116.31   110.99   -49.85
           2 C2       3 C3       5 C5       4 C4        102.73    91.63    57.73
           2 C2       3 C3       5 C5       8 H8        102.73   113.27   174.05
           2 C2       3 C3       5 C5       9 H9        102.73   113.60   -58.97
           6 N6       3 C3       5 C5       8 H8        101.48   113.27    66.23
           6 N6       3 C3       5 C5       9 H9        101.48   113.60  -166.79
           2 C2       3 C3       6 N6       7 N7        104.40   107.99   -72.61
           5 C5       3 C3       6 N6       7 N7        101.48   107.99    33.90
           5 C5       4 C4       1 C1      13 H13       103.00   111.29   157.27
           5 C5       4 C4       1 C1      14 H14       103.00   111.05   -82.29
           7 N7       4 C4       1 C1      13 H13       104.13   111.29    52.28
           7 N7       4 C4       1 C1      14 H14       104.13   111.05   172.72
          10 H10      4 C4       1 C1      13 H13       116.76   111.29   -69.84
          10 H10      4 C4       1 C1      14 H14       116.76   111.05    50.59
           1 C1       4 C4       5 C5       3 C3        103.00    91.63   -57.67
           1 C1       4 C4       5 C5       8 H8        103.00   113.32  -173.94
           1 C1       4 C4       5 C5       9 H9        103.00   113.59    59.04
           7 N7       4 C4       5 C5       8 H8        100.93   113.32   -66.49
           7 N7       4 C4       5 C5       9 H9        100.93   113.59   166.49
           1 C1       4 C4       7 N7       6 N6        104.13   107.02    72.44
           5 C5       4 C4       7 N7       6 N6        100.93   107.02   -34.11
           4 C4       5 C5       3 C3       6 N6         91.63   101.48   -50.09
           4 C4       5 C5       3 C3      11 H11        91.63   118.97  -172.14
           8 H8       5 C5       3 C3      11 H11       113.27   118.97   -55.83
           9 H9       5 C5       3 C3      11 H11       113.60   118.97    71.16
           3 C3       5 C5       4 C4       7 N7         91.63   100.93    49.78
           3 C3       5 C5       4 C4      10 H10        91.63   119.40   171.01
           8 H8       5 C5       4 C4      10 H10       113.32   119.40    54.74
           9 H9       5 C5       4 C4      10 H10       113.59   119.40   -72.28
           7 N7       6 N6       3 C3      11 H11       107.99   111.02   161.31
           3 C3       6 N6       7 N7       4 C4        107.99   107.02     0.14
           6 N6       7 N7       4 C4      10 H10       107.02   110.52  -161.41
--


++    Isotope specification:
      ----------------------

 Center
 Type   Z    A    mass (Da)
 --------------------------
    1   6   12    12.000000
    2   7   14    14.003074
    3   1    1     1.007825
--


++    Rigid rotor info:
      -----------------


                    Total mass (a) :  96.06875

                    Center of mass 
                          X          Y          Z   
                      -0.09415    0.00099    0.05003

                    Reference system based on center of mass
                    Coordinates and Masses of Atoms, in au and A
                          X          Y          Z        Mass
                       2.39341   -1.47334    0.59907   12.00000
                       2.39115    1.46816    0.60096   12.00000
                      -0.19861    2.05927   -0.59829   12.00000
                      -0.18437   -2.06697   -0.61118   12.00000
                      -0.45970   -0.00139   -2.59203   12.00000
                      -2.06196    1.21975    1.31864   14.00307
                      -2.08061   -1.20649    1.33344   14.00307
                      -2.29357   -0.00444   -3.52164    1.00783
                       1.05033    0.00712   -3.98731    1.00783
                      -0.52918   -4.01607   -1.13673    1.00783
                      -0.52610    4.00831   -1.13710    1.00783
                       2.53636    2.26563    2.48964    1.00783
                       2.53320   -2.27336    2.48704    1.00783
                       3.93196   -2.23409   -0.53104    1.00783
                       3.92019    2.23260   -0.53653    1.00783

                    The Moment of Inertia Tensor / au
                                     X          Y        Z     
                    X             0.8014E+06
                    Y             0.1083E+04 0.9176E+06
                    Z             0.2147E+05-0.6903E+03 0.1021E+07

                    The Principal Axes and Moments of Inertia (au)
                    Eigenvalues : 0.1023E+07 0.9176E+06 0.7993E+06
                                     X'         Y'       Z'    
                    Eigenvectors:
                    X             0.9640E-01 0.1016E-01 0.9953E+00
                    Y            -0.5526E-02 0.9999E+00-0.9676E-02
                    Z             0.9953E+00 0.4567E-02-0.9645E-01

                    The Rotational Constants
                            (cm-1)            (GHz)
                              0.107            3.216
                              0.120            3.585
                              0.137            4.116


                    *******************************************
                    *                                         *
                    * R I G I D - R O T O R   A N A L Y S I S *
                    *                                         *
                    *******************************************

                    j(Max):  5

                    Rotor Type: Linear Rotor
                    Asymmetry parameter: -0.179
                    Prolate = -1
                    Oblate  =  1


                    Rotational energies / cm-1

                    E(J= 0,kappa= 0) =        0.000

                    E(J= 1,kappa=-1) =        0.227
                    E(J= 1,kappa= 0) =        0.245
                    E(J= 1,kappa= 1) =        0.257

                    E(J= 2,kappa=-2) =        0.676
                    E(J= 2,kappa=-1) =        0.686
                    E(J= 2,kappa= 0) =        0.723
                    E(J= 2,kappa= 1) =        0.776
                    E(J= 2,kappa= 2) =        0.781

                    E(J= 3,kappa=-3) =        1.341
                    E(J= 3,kappa=-2) =        1.346
                    E(J= 3,kappa=-1) =        1.418
                    E(J= 3,kappa= 0) =        1.457
                    E(J= 3,kappa= 1) =        1.476
                    E(J= 3,kappa= 2) =        1.578
                    E(J= 3,kappa= 3) =        1.579

                    E(J= 4,kappa=-4) =        2.220
                    E(J= 4,kappa=-3) =        2.222
                    E(J= 4,kappa=-2) =        2.338
                    E(J= 4,kappa=-1) =        2.360
                    E(J= 4,kappa= 0) =        2.408
                    E(J= 4,kappa= 1) =        2.492
                    E(J= 4,kappa= 2) =        2.500
                    E(J= 4,kappa= 3) =        2.654
                    E(J= 4,kappa= 4) =        2.654

                    E(J= 5,kappa=-5) =        3.313
                    E(J= 5,kappa=-4) =        3.313
                    E(J= 5,kappa=-3) =        3.474
                    E(J= 5,kappa=-2) =        3.485
                    E(J= 5,kappa=-1) =        3.573
                    E(J= 5,kappa= 0) =        3.634
                    E(J= 5,kappa= 1) =        3.658
                    E(J= 5,kappa= 2) =        3.798
                    E(J= 5,kappa= 3) =        3.800
                    E(J= 5,kappa= 4) =        4.004
                    E(J= 5,kappa= 5) =        4.004
--


++    Primitive basis info:
      ---------------------


                    *****************************************************
                    ******** Primitive Basis Functions (Valence) ********
                    *****************************************************


 Basis set:C.ANO-S...3S2P1D.                                                               

                  Type         
                   s
           No.      Exponent    Contraction Coefficients
            1  0.524063530D+04   0.000937  -0.000201   0.000189
            2  0.782204790D+03   0.007229  -0.001591   0.001599
            3  0.178350830D+03   0.036344  -0.007858   0.007159
            4  0.508159420D+02   0.130629  -0.030786   0.032551
            5  0.168235620D+02   0.318899  -0.077760   0.066712
            6  0.617577600D+01   0.439079  -0.165480   0.210715
            7  0.241804900D+01   0.214477  -0.093532   0.016063
            8  0.511900000D+00   0.009529   0.591068  -1.206081
            9  0.156590000D+00  -0.002422   0.510180   0.623592
           10  0.548060000D-01   0.000859   0.036021   0.675554

                  Type         
                   p
           No.      Exponent    Contraction Coefficients
           11  0.188418000D+02   0.013632  -0.012701
           12  0.415924000D+01   0.083811  -0.067266
           13  0.120671000D+01   0.285792  -0.340423
           14  0.385540000D+00   0.486416  -0.374777
           15  0.121940000D+00   0.314764   0.422841
           16  0.426790000D-01   0.090934   0.642839

                  Type         
                   d
           No.      Exponent    Contraction Coefficients
           17  0.128380000D+01   0.320879
           18  0.344000000D+00   0.723314
           19  0.922000000D-01   0.157214


 Basis set:N.ANO-S...3S2P1D.                                                               

                  Type         
                   s
           No.      Exponent    Contraction Coefficients
           96  0.810407160D+04   0.000810  -0.000179   0.000174
           97  0.121602150D+04   0.006077  -0.001380   0.001448
           98  0.277234280D+03   0.032095  -0.007133   0.006673
           99  0.769040230D+02   0.117503  -0.028496   0.031581
          100  0.258744190D+02   0.293747  -0.072893   0.063438
          101  0.934676700D+01   0.451254  -0.168463   0.222032
          102  0.357979400D+01   0.242598  -0.104881   0.030237
          103  0.739610000D+00   0.013463   0.581772  -1.252482
          104  0.222617000D+00  -0.003812   0.521024   0.704442
          105  0.779160000D-01   0.001388   0.036641   0.610007

                  Type         
                   p
           No.      Exponent    Contraction Coefficients
          106  0.268689870D+02   0.014422  -0.011478
          107  0.599122700D+01   0.090847  -0.065121
          108  0.175084200D+01   0.297796  -0.289659
          109  0.560511000D+00   0.483281  -0.315787
          110  0.175948000D+00   0.304009   0.219986
          111  0.615820000D-01   0.089938   0.808974

                  Type         
                   d
           No.      Exponent    Contraction Coefficients
          112  0.188620000D+01   0.328498
          113  0.505400000D+00   0.719299
          114  0.135400000D+00   0.154608


 Basis set:H.ANO-S...2S1P.                                                                 

                  Type         
                   s
           No.      Exponent    Contraction Coefficients
          134  0.826363740D+02   0.002564  -0.004601
          135  0.124095580D+02   0.019213  -0.032445
          136  0.282385400D+01   0.095051  -0.171074
          137  0.797670000D+00   0.301868  -0.504867
          138  0.258053000D+00   0.487446  -0.094892
          139  0.898910000D-01   0.235479   0.370856
          140  0.314620000D-01   0.015778   0.655651

                  Type         
                   p
           No.      Exponent    Contraction Coefficients
          141  0.166250000D+01   0.301277
          142  0.415600000D+00   0.680057
          143  0.103900000D+00   0.198563

  Number of primitives                                  429
  Number of basis functions                             138

--


++    SO/AO info:
      -----------

                    **************************************************
                    ********** Petite list Basis Functions ***********
                    **************************************************


           Basis functions generated by E  

 Basis Label        Type   Center
    1  C1            1s       1
    2  C1            2s       1
    3  C1            3s       1
    4  C1            2px      1
    5  C1            3px      1
    6  C1            2py      1
    7  C1            3py      1
    8  C1            2pz      1
    9  C1            3pz      1
   10  C1            3d2-     1
   11  C1            3d1-     1
   12  C1            3d0      1
   13  C1            3d1+     1
   14  C1            3d2+     1
   15  C2            1s       2
   16  C2            2s       2
   17  C2            3s       2
   18  C2            2px      2
   19  C2            3px      2
   20  C2            2py      2
   21  C2            3py      2
   22  C2            2pz      2
   23  C2            3pz      2
   24  C2            3d2-     2
   25  C2            3d1-     2
   26  C2            3d0      2
   27  C2            3d1+     2
   28  C2            3d2+     2
   29  C3            1s       3
   30  C3            2s       3
   31  C3            3s       3
   32  C3            2px      3
   33  C3            3px      3
   34  C3            2py      3
   35  C3            3py      3
   36  C3            2pz      3
   37  C3            3pz      3
   38  C3            3d2-     3
   39  C3            3d1-     3
   40  C3            3d0      3
   41  C3            3d1+     3
   42  C3            3d2+     3
   43  C4            1s       4
   44  C4            2s       4
   45  C4            3s       4
   46  C4            2px      4
   47  C4            3px      4
   48  C4            2py      4
   49  C4            3py      4
   50  C4            2pz      4
   51  C4            3pz      4
   52  C4            3d2-     4
   53  C4            3d1-     4
   54  C4            3d0      4
   55  C4            3d1+     4
   56  C4            3d2+     4
   57  C5            1s       5
   58  C5            2s       5
   59  C5            3s       5
   60  C5            2px      5
   61  C5            3px      5
   62  C5            2py      5
   63  C5            3py      5
   64  C5            2pz      5
   65  C5            3pz      5
   66  C5            3d2-     5
   67  C5            3d1-     5
   68  C5            3d0      5
   69  C5            3d1+     5
   70  C5            3d2+     5
   71  N6            1s       6
   72  N6            2s       6
   73  N6            3s       6
   74  N6            2px      6
   75  N6            3px      6
   76  N6            2py      6
   77  N6            3py      6
   78  N6            2pz      6
   79  N6            3pz      6
   80  N6            3d2-     6
   81  N6            3d1-     6
   82  N6            3d0      6
   83  N6            3d1+     6
   84  N6            3d2+     6
   85  N7            1s       7
   86  N7            2s       7
   87  N7            3s       7
   88  N7            2px      7
   89  N7            3px      7
   90  N7            2py      7
   91  N7            3py      7
   92  N7            2pz      7
   93  N7            3pz      7
   94  N7            3d2-     7
   95  N7            3d1-     7
   96  N7            3d0      7
   97  N7            3d1+     7
   98  N7            3d2+     7
   99  H8            1s       8
  100  H8            2s       8
  101  H8            2px      8
  102  H8            2py      8
  103  H8            2pz      8
  104  H9            1s       9
  105  H9            2s       9
  106  H9            2px      9
  107  H9            2py      9
  108  H9            2pz      9
  109  H10           1s      10
  110  H10           2s      10
  111  H10           2px     10
  112  H10           2py     10
  113  H10           2pz     10
  114  H11           1s      11
  115  H11           2s      11
  116  H11           2px     11
  117  H11           2py     11
  118  H11           2pz     11
  119  H12           1s      12
  120  H12           2s      12
  121  H12           2px     12
  122  H12           2py     12
  123  H12           2pz     12
  124  H13           1s      13
  125  H13           2s      13
  126  H13           2px     13
  127  H13           2py     13
  128  H13           2pz     13
  129  H14           1s      14
  130  H14           2s      14
  131  H14           2px     14
  132  H14           2py     14
  133  H14           2pz     14
  134  H15           1s      15
  135  H15           2s      15
  136  H15           2px     15
  137  H15           2py     15
  138  H15           2pz     15

      Basis set specifications :
      Symmetry species        a  
      Basis functions         138
--


            Nuclear Potential Energy            313.80594426 au

--- Stop Module: gateway at Fri Sep 23 06:53:22 2022 /rc=_RC_ALL_IS_WELL_ ---
*** files: dbh-x-caspt2-88-sa8.RICDLib xmldump
    saved to directory /scratch/adaogomes.l/dbh/molcas/sa8/dbh-x-caspt2-88-sa8
--- Module gateway spent 1 second ---

--- Start Module: seward at Fri Sep 23 06:53:22 2022 ---

()()()()()()()()()()()()()()()()()()()()()()()()()()()()()()()()()()()()()()()()()()()()()()()()()()

                                              &SEWARD

                       only a single process is used, running in SERIAL mode
                       available to each process: 2.8 GB of memory, 1 thread
()()()()()()()()()()()()()()()()()()()()()()()()()()()()()()()()()()()()()()()()()()()()()()()()()()


  Weights used for alignment and distance                     
  mat. size =    15x    1
       12.0000000000000000
       12.0000000000000000
       12.0000000000000000
       12.0000000000000000
       12.0000000000000000
       14.0030740044299993
       14.0030740044299993
        1.0078250322300000
        1.0078250322300000
        1.0078250322300000
        1.0078250322300000
        1.0078250322300000
        1.0078250322300000
        1.0078250322300000
        1.0078250322300000

               SEWARD will generate:
                  Multipole Moment integrals up to order  2
                  Kinetic Energy integrals
                  Nuclear Attraction integrals (point charge)
                  One-Electron Hamiltonian integrals
                  Velocity integrals
                  RI decomposed two-electron repulsion integrals stored Cholesky style
                   - acCD auxiliary basis
                   - CD Threshold:   0.10E-03

                   Integrals are discarded if absolute value <: 0.10E-13
                   Integral cutoff threshold is set to       <: 0.10E-15

++    SO/AO info:
      -----------

                    **************************************************
                    ********** Petite list Basis Functions ***********
                    **************************************************


           Basis functions generated by E  

 Basis Label        Type   Center
    1  C1            1s       1
    2  C1            2s       1
    3  C1            3s       1
    4  C1            2px      1
    5  C1            3px      1
    6  C1            2py      1
    7  C1            3py      1
    8  C1            2pz      1
    9  C1            3pz      1
   10  C1            3d2-     1
   11  C1            3d1-     1
   12  C1            3d0      1
   13  C1            3d1+     1
   14  C1            3d2+     1
   15  C2            1s       2
   16  C2            2s       2
   17  C2            3s       2
   18  C2            2px      2
   19  C2            3px      2
   20  C2            2py      2
   21  C2            3py      2
   22  C2            2pz      2
   23  C2            3pz      2
   24  C2            3d2-     2
   25  C2            3d1-     2
   26  C2            3d0      2
   27  C2            3d1+     2
   28  C2            3d2+     2
   29  C3            1s       3
   30  C3            2s       3
   31  C3            3s       3
   32  C3            2px      3
   33  C3            3px      3
   34  C3            2py      3
   35  C3            3py      3
   36  C3            2pz      3
   37  C3            3pz      3
   38  C3            3d2-     3
   39  C3            3d1-     3
   40  C3            3d0      3
   41  C3            3d1+     3
   42  C3            3d2+     3
   43  C4            1s       4
   44  C4            2s       4
   45  C4            3s       4
   46  C4            2px      4
   47  C4            3px      4
   48  C4            2py      4
   49  C4            3py      4
   50  C4            2pz      4
   51  C4            3pz      4
   52  C4            3d2-     4
   53  C4            3d1-     4
   54  C4            3d0      4
   55  C4            3d1+     4
   56  C4            3d2+     4
   57  C5            1s       5
   58  C5            2s       5
   59  C5            3s       5
   60  C5            2px      5
   61  C5            3px      5
   62  C5            2py      5
   63  C5            3py      5
   64  C5            2pz      5
   65  C5            3pz      5
   66  C5            3d2-     5
   67  C5            3d1-     5
   68  C5            3d0      5
   69  C5            3d1+     5
   70  C5            3d2+     5
   71  N6            1s       6
   72  N6            2s       6
   73  N6            3s       6
   74  N6            2px      6
   75  N6            3px      6
   76  N6            2py      6
   77  N6            3py      6
   78  N6            2pz      6
   79  N6            3pz      6
   80  N6            3d2-     6
   81  N6            3d1-     6
   82  N6            3d0      6
   83  N6            3d1+     6
   84  N6            3d2+     6
   85  N7            1s       7
   86  N7            2s       7
   87  N7            3s       7
   88  N7            2px      7
   89  N7            3px      7
   90  N7            2py      7
   91  N7            3py      7
   92  N7            2pz      7
   93  N7            3pz      7
   94  N7            3d2-     7
   95  N7            3d1-     7
   96  N7            3d0      7
   97  N7            3d1+     7
   98  N7            3d2+     7
   99  H8            1s       8
  100  H8            2s       8
  101  H8            2px      8
  102  H8            2py      8
  103  H8            2pz      8
  104  H9            1s       9
  105  H9            2s       9
  106  H9            2px      9
  107  H9            2py      9
  108  H9            2pz      9
  109  H10           1s      10
  110  H10           2s      10
  111  H10           2px     10
  112  H10           2py     10
  113  H10           2pz     10
  114  H11           1s      11
  115  H11           2s      11
  116  H11           2px     11
  117  H11           2py     11
  118  H11           2pz     11
  119  H12           1s      12
  120  H12           2s      12
  121  H12           2px     12
  122  H12           2py     12
  123  H12           2pz     12
  124  H13           1s      13
  125  H13           2s      13
  126  H13           2px     13
  127  H13           2py     13
  128  H13           2pz     13
  129  H14           1s      14
  130  H14           2s      14
  131  H14           2px     14
  132  H14           2py     14
  133  H14           2pz     14
  134  H15           1s      15
  135  H15           2s      15
  136  H15           2px     15
  137  H15           2py     15
  138  H15           2pz     15

      Basis set specifications :
      Symmetry species        a  
      Basis functions         138
--


            Nuclear Potential Energy            313.80594426 au


      Basis set specifications :
      Symmetry species         a  
      Basis functions          138


Seward processing 2-center and 3-center ERIs

 2-center integrals:
      CPU time :    0.17 sec.
      Wall time:    0.20 sec.
 3-center integrals:
      CPU time :    3.11 sec.
      Wall time:    3.29 sec.
 Block-transpose:
      CPU time :    0.11 sec.
      Wall time:    0.23 sec.
 Diagonal vector:
      CPU time :    0.18 sec.
      Wall time:    0.18 sec.
      RI vectors               666



  Input file to MOLDEN was generated!

++ I/O STATISTICS
 
  I. General I/O information
  - - - - - - - - - - - - - - - - - - - - - - - - - - - - - - - - - - - - - - - - - - -
  Unit  Name          Flsize      Write/Read            MBytes           Write/Read
                      (MBytes)       Calls              In/Out           Time, sec.
  - - - - - - - - - - - - - - - - - - - - - - - - - - - - - - - - - - - - - - - - - - -
   1  RUNFILE          13.43 .    1477/    8688 .     23.6/     93.3 .       0/       0
   2  NQGRID            0.00 .       2/       0 .      0.0/      0.0 .       0/       0
   3  ONEINT            2.82 .      44/     106 .     33.9/     22.3 .       0/       0
   4  AVEC00            0.00 .     667/    1333 .      5.1/     10.2 .       0/       0
   5  ZMAT00            0.00 .       1/       0 .      3.4/      0.0 .       0/       0
   6  AMAT00            1.69 .       2/       1 .      3.4/      1.7 .       0/       0
   7  QMAT00            0.00 .       1/       1 .      1.7/      1.7 .       0/       0
   8  QVEC00            3.38 .     666/       1 .      3.4/      3.4 .       0/       0
   9  RVEC00           48.73 .     703/     703 .     48.7/     48.7 .       0/       0
  10  CHRED             0.16 .       4/       0 .      0.2/      0.0 .       0/       0
  11  CHVEC1           48.73 .       1/       0 .     48.7/      0.0 .       0/       0
  12  CHORST            0.03 .      12/       0 .      0.0/      0.0 .       0/       0
  13  CHOMAP            0.01 .       1/       0 .      0.0/      0.0 .       0/       0
  14  CHODIAG           0.07 .       1/       0 .      0.1/      0.0 .       0/       0
  - - - - - - - - - - - - - - - - - - - - - - - - - - - - - - - - - - - - - - - - - - -
   *  TOTAL           119.05 .    3582/   10833 .    172.1/    181.3 .       0/       0
  - - - - - - - - - - - - - - - - - - - - - - - - - - - - - - - - - - - - - - - - - - -
 
  II. I/O Access Patterns
  - - - - - - - - - - - - - - - - - - - -
  Unit  Name               % of random
                         Write/Read calls
  - - - - - - - - - - - - - - - - - - - -
   1  RUNFILE             28.6/  10.4
   2  NQGRID              50.0/   0.0
   3  ONEINT              93.2/  14.2
   4  AVEC00              99.9/  99.5
   5  ZMAT00               0.0/   0.0
   6  AMAT00              50.0/ 100.0
   7  QMAT00               0.0/ 100.0
   8  QVEC00               0.0/ 100.0
   9  RVEC00               0.0/   0.1
  10  CHRED                0.0/   0.0
  11  CHVEC1               0.0/   0.0
  12  CHORST               0.0/   0.0
  13  CHOMAP               0.0/   0.0
  14  CHODIAG              0.0/   0.0
  - - - - - - - - - - - - - - - - - - - -
--
--- Stop Module: seward at Fri Sep 23 06:53:27 2022 /rc=_RC_ALL_IS_WELL_ ---
*** files: dbh-x-caspt2-88-sa8.GssOrb dbh-x-caspt2-88-sa8.guessorb.h5 dbh-x-caspt2-88-sa8.guessorb.molden xmldump
    saved to directory /scratch/adaogomes.l/dbh/molcas/sa8/dbh-x-caspt2-88-sa8
--- Module seward spent 5 seconds ---

*** symbolic link created: INPORB -> dbh-x-caspt2-88-sa8.GssOrb
--- Start Module: rasscf at Fri Sep 23 06:53:27 2022 ---

()()()()()()()()()()()()()()()()()()()()()()()()()()()()()()()()()()()()()()()()()()()()()()()()()()

                                              &RASSCF

                       only a single process is used, running in SERIAL mode
                       available to each process: 2.8 GB of memory, 1 thread
()()()()()()()()()()()()()()()()()()()()()()()()()()()()()()()()()()()()()()()()()()()()()()()()()()

  Orbital specification was read from input.

      Header of the ONEINT file:
      --------------------------
      
      Integrals generated by seward 4.2.0  , Fri Sep 23 06:53:22 2022


      OrdInt status: non-squared


      Cartesian coordinates in Angstrom:
      -----------------------------------------------------
      No.  Label        X            Y            Z        
      -----------------------------------------------------
       1   C1         1.21671379  -0.77913698   0.34348640
       2   C2         1.21551775   0.77743888   0.34448537
       3   C3        -0.15492363   1.09023891  -0.29012940
       4   C4        -0.14738756  -1.09327059  -0.29694913
       5   C5        -0.29308504  -0.00021568  -1.34516880
       6   N6        -1.14096606   0.64598789   0.72426501
       7   N7        -1.15083660  -0.63792509   0.73209919
       8   H8        -1.26352778  -0.00182958  -1.83710019
       9   H9         0.50598601   0.00428976  -2.08352148
      10   H10       -0.32985428  -2.12469070  -0.57505892
      11   H11       -0.32822429   2.12162761  -0.57525532
      12   H12        1.29236098   1.19944313   1.34393363
      13   H13        1.29068919  -1.20248971   1.34255856
      14   H14        2.03088142  -1.18170947  -0.25454268
      15   H15        2.02465211   1.18196063  -0.25744923
      -----------------------------------------------------
      Nuclear repulsion energy =  313.80594426

++    Wave function specifications:
      -----------------------------

      Number of closed shell electrons          44
      Number of electrons in active shells       8
      Max number of holes in RAS1 space          0
      Max nr of electrons in RAS3 space          0
      Number of inactive orbitals               22
      Number of active orbitals                  8
      Number of secondary orbitals             108
      Spin quantum number                      0.0
      State symmetry                             1
--

++    Orbital specifications:
      -----------------------

      Symmetry species                           1
                                                 a
      Frozen orbitals                            0
      Inactive orbitals                         22
      Active orbitals                            8
      RAS1 orbitals                              0
      RAS2 orbitals                              8
      RAS3 orbitals                              0
      Secondary orbitals                       108
      Deleted orbitals                           0
      Number of basis functions                138

--
++    CI expansion specifications:
      ----------------------------

      Number of CSFs                          1764
      Number of determinants                  2485
      Number of root(s) required                 8
      Root chosen for geometry opt.              1
      CI roots used                              1     2     3     4     5     6     7     8
      weights                                0.125 0.125 0.125 0.125 0.125 0.125 0.125 0.125
      highest root included in the CI            8
      max. size of the explicit Hamiltonian    200
--

++    Optimization specifications:
      ----------------------------

      RASSCF algorithm: LK RI/DF
      Maximum number of macro iterations       200
      Maximum number of SX iterations          100
      Threshold for RASSCF energy            0.100E-07
      Threshold for max MO rotation          0.100E+00
      Threshold for max BLB element          0.100E-03
      Level shift parameter                  0.500E+00
      Make Quasi-Newton update
--

      The MO-coefficients are taken from the file:
      /scratch/adaogomes.l/dbh/molcas/sa8/dbh-x-caspt2-88-sa8/dbh-x-caspt2-88-sa8.StrOrb                                              
      Title: RASSCF average (pseudo-natural) orbitals                                      

      Total molecular charge    0.00

      ************************************************************************************************************************
      *                                                                                                                      *
      *                                            Wave function control section                                             *
      *                                                                                                                      *
      ************************************************************************************************************************


                                         RASSCF iterations: Energy and convergence statistics
                                         ----------------------------------------------------

      Iter CI   SX   CI       RASSCF       Energy    max ROT     max BLB   max BLB  Level Ln srch  Step   QN   Walltime
          iter iter root      energy       change     param      element    value   shift minimum  type update hh:mm:ss
 Nr of preliminary CI iterations:   5
        1   1    9    0  -302.69654928    0.00E+00   0.19E-01    8  66 1 -0.13E-01*  0.33   0.00    SX    NO    0:00:02
        2   1    8    0  -302.69893775   -0.24E-02*  0.89E-02   14  30 1  0.53E-02*  0.34   0.00    SX    NO    0:00:01
        3   3    7    0  -302.69937866   -0.44E-03* -0.60E-02   14  30 1  0.23E-02*  0.34   0.00    SX    NO    0:00:01
        4   5    7    0  -302.69950673   -0.13E-03* -0.47E-02   14  30 1  0.12E-02*  0.34   0.00    SX    NO    0:00:01
        5   4    7    0  -302.69955353   -0.47E-04* -0.67E-02   14  30 1  0.59E-03*  0.34   2.50    LS   YES    0:00:01
        6   6    7    0  -302.69958595   -0.32E-04* -0.71E-02   14  53 1  0.35E-03*  0.34   1.28    QN   YES    0:00:01
        7   5    6    0  -302.69959870   -0.13E-04*  0.18E-01   14  30 1 -0.36E-03*  0.34   2.25    QN   YES    0:00:01
        8  10    7    0  -302.69961888   -0.20E-04*  0.29E-01   14  30 1 -0.23E-03*  0.34   1.94    QN   YES    0:00:01
        9   8    7    0  -302.69964560   -0.27E-04*  0.63E-01    9  24 1 -0.50E-03*  0.34   2.07    QN   YES    0:00:01
       10   9    7    0  -302.69968667   -0.41E-04*  0.23E-01    9  24 1 -0.92E-03*  0.34   1.03    QN   YES    0:00:01
       11   7    7    0  -302.69972767   -0.41E-04* -0.59E-01    9  24 1 -0.87E-03*  0.34   2.50    QN   YES    0:00:01
       12   8    7    0  -302.69985153   -0.12E-03*  0.15E-01   14  30 1  0.96E-03*  0.34   1.05    QN   YES    0:00:01
       13   5    7    0  -302.69988408   -0.33E-04*  0.17E-01   26  50 1 -0.49E-03*  0.34   1.25    QN   YES    0:00:01
       14   6    7    0  -302.69991866   -0.35E-04* -0.23E-01   26  50 1 -0.54E-03*  0.34   1.68    QN   YES    0:00:01
       15   6    7    0  -302.69994980   -0.31E-04* -0.25E-01   14  30 1 -0.73E-03*  0.34   1.71    QN   YES    0:00:01
       16   7    7    0  -302.69997367   -0.24E-04* -0.20E-01   14  30 1 -0.65E-03*  0.34   1.63    QN   YES    0:00:01
       17   6    7    0  -302.69998773   -0.14E-04* -0.86E-02   14  30 1 -0.27E-03*  0.34   1.51    QN   YES    0:00:01
       18   6    6    0  -302.69999285   -0.51E-05* -0.21E-02   26  33 1  0.11E-03*  0.34   1.48    QN   YES    0:00:01
       19   5    6    0  -302.69999451   -0.17E-05*  0.16E-02   14  30 1  0.85E-04   0.34   1.57    QN   YES    0:00:01
       20   6    6    0  -302.69999531   -0.80E-06*  0.15E-02   14  30 1  0.65E-04   0.34   1.58    QN   YES    0:00:01
       21   6    6    0  -302.69999580   -0.49E-06* -0.11E-02   26  33 1 -0.49E-04   0.34   1.47    QN   YES    0:00:01
       22   5    6    0  -302.69999605   -0.25E-06*  0.53E-03   14  53 1  0.41E-04   0.34   1.46    QN   YES    0:00:01
       23   5    6    0  -302.69999617   -0.11E-06*  0.35E-03   14  30 1 -0.25E-04   0.34   1.44    QN   YES    0:00:01
       24   3    5    0  -302.69999622   -0.49E-07*  0.32E-03   28  31 1 -0.17E-04   0.34   1.55    QN   YES    0:00:01
       25   4    5    0  -302.69999625   -0.30E-07* -0.38E-03   28  31 1 -0.13E-04   0.34   1.75    QN   YES    0:00:01
       26   5    5    0  -302.69999627   -0.25E-07* -0.33E-03   23  42 1  0.16E-04   0.34   1.66    QN   YES    0:00:01
       27   3    5    0  -302.69999629   -0.16E-07*  0.20E-03   19  30 1  0.12E-04   0.34   1.58    QN   YES    0:00:01
       28   4    5    0  -302.69999629   -0.79E-08  -0.11E-03   27  33 1  0.51E-05   0.34   1.47    QN   YES    0:00:01
      Convergence after 28 iterations
       29   3    5    0  -302.69999630   -0.28E-08  -0.11E-03   28  34 1  0.35E-05   0.34   1.47    QN   YES    0:00:01

      ************************************************************************************************************************
                                                      Wave function printout:
                       occupation of active orbitals, and spin coupling of open shells (u,d: Spin up or down)
      ************************************************************************************************************************

      Note: transformation to natural orbitals
      has been made, which may change the order of the CSFs.

      printout of CI-coefficients larger than  0.05 for root  1
      energy=    -302.969867
      conf/sym  11111111     Coeff  Weight
             1  22220000   0.96214 0.92571
             5  222u000d   0.06434 0.00414
            58  22022000  -0.19299 0.03725
            81  u2d2u0d0   0.07088 0.00502
           113  02220020  -0.05737 0.00329
           143  u2u2d0d0   0.05376 0.00289

      printout of CI-coefficients larger than  0.05 for root  2
      energy=    -302.812439
      conf/sym  11111111     Coeff  Weight
             2  222ud000   0.94881 0.90023
            10  2u22d000  -0.10103 0.01021
            68  2ud22000   0.23553 0.05548
            78  u2d22000   0.05121 0.00262
           320  022ud020  -0.05727 0.00328

      printout of CI-coefficients larger than  0.05 for root  3
      energy=    -302.731919
      conf/sym  11111111     Coeff  Weight
             2  222ud000  -0.11168 0.01247
             6  22u2d000  -0.08964 0.00804
            10  2u22d000  -0.87136 0.75926
            28  22ud2000  -0.44288 0.19614
           540  0u22d020   0.05457 0.00298

      printout of CI-coefficients larger than  0.05 for root  4
      energy=    -302.691111
      conf/sym  11111111     Coeff  Weight
             3  222u0d00   0.94860 0.89984
             6  22u2d000  -0.08260 0.00682
            25  22200u0d  -0.05820 0.00339
            69  2ud2ud00   0.13656 0.01865
           136  2uu2dd00   0.09687 0.00938
           214  220u2d00   0.15751 0.02481
           258  u2duudd0   0.05570 0.00310
           321  022u0d20  -0.05527 0.00305

      printout of CI-coefficients larger than  0.05 for root  5
      energy=    -302.650545
      conf/sym  11111111     Coeff  Weight
            18  22202000  -0.91131 0.83048
            58  22022000   0.05142 0.00264
            88  20222000   0.37116 0.13776
            98  ud222000   0.06038 0.00365
           657  02202020   0.05586 0.00312

      printout of CI-coefficients larger than  0.05 for root  6
      energy=    -302.597864
      conf/sym  11111111     Coeff  Weight
             3  222u0d00  -0.07671 0.00588
             6  22u2d000  -0.92817 0.86150
            10  2u22d000   0.09489 0.00900
            11  2u220d00  -0.07930 0.00629
            12  2u2200d0   0.13327 0.01776
            13  2u22000d  -0.08081 0.00653
            16  u22200d0  -0.14234 0.02026
            38  2u2d2000  -0.15083 0.02275
           121  22uud00d   0.05798 0.00336
           396  2u0220d0   0.07107 0.00505
           416  u20220d0  -0.10016 0.01003

      printout of CI-coefficients larger than  0.05 for root  7
      energy=    -302.577753
      conf/sym  11111111     Coeff  Weight
             6  22u2d000   0.07517 0.00565
             7  22u20d00  -0.79795 0.63673
            11  2u220d00  -0.50083 0.25083
            29  22udud00  -0.21074 0.04441
            39  2u2dud00  -0.07657 0.00586
           118  22uudd00   0.07662 0.00587
           154  22u02d00   0.07281 0.00530
           394  2u022d00   0.08072 0.00652
           418  u202udd0  -0.06177 0.00382

      printout of CI-coefficients larger than  0.05 for root  8
      energy=    -302.568472
      conf/sym  11111111     Coeff  Weight
             6  22u2d000  -0.05008 0.00251
             7  22u20d00  -0.55455 0.30752
            11  2u220d00   0.73797 0.54459
            29  22udud00   0.27348 0.07479
            39  2u2dud00  -0.07958 0.00633
           118  22uudd00  -0.09233 0.00852
           174  2u202d00  -0.06126 0.00375
           394  2u022d00  -0.10632 0.01130

      Natural orbitals and occupation numbers for root  1
      sym 1:   1.973936   1.995684   1.906259   1.981791   0.098932   0.000559   0.027152   0.015687

      Natural orbitals and occupation numbers for root  2
      sym 1:   1.977158   1.924674   1.935481   1.058892   1.066650   0.000575   0.025082   0.011488

      Natural orbitals and occupation numbers for root  3
      sym 1:   1.982434   1.184292   1.811257   1.785719   1.203421   0.001317   0.020969   0.010591

      Natural orbitals and occupation numbers for root  4
      sym 1:   1.973347   1.945966   1.893424   1.046403   0.108910   0.993242   0.030777   0.007931

      Natural orbitals and occupation numbers for root  5
      sym 1:   1.979479   1.694552   1.993010   0.312478   1.994489   0.000468   0.022101   0.003421

      Natural orbitals and occupation numbers for root  6
      sym 1:   1.974052   1.915977   1.094917   1.950404   0.959297   0.011005   0.066735   0.027612

      Natural orbitals and occupation numbers for root  7
      sym 1:   1.982458   1.962041   1.026907   1.915849   0.103471   0.971085   0.026756   0.011433

      Natural orbitals and occupation numbers for root  8
      sym 1:   1.979727   1.068380   1.923812   1.882505   0.144932   0.961554   0.026674   0.012417

      ************************************************************************************************************************
      *                                                                                                                      *
      *                                                    Final results                                                     *
      *                                                                                                                      *
      ************************************************************************************************************************


++    Wave function specifications:
      -----------------------------

      Number of closed shell electrons          44
      Number of electrons in active shells       8
      Max number of holes in RAS1 space          0
      Max nr of electrons in RAS3 space          0
      Number of inactive orbitals               22
      Number of active orbitals                  8
      Number of secondary orbitals             108
      Spin quantum number                      0.0
      State symmetry                             1
--

++    Orbital specifications:
      -----------------------

      Symmetry species                           1
                                                 a
      Frozen orbitals                            0
      Inactive orbitals                         22
      Active orbitals                            8
      RAS1 orbitals                              0
      RAS2 orbitals                              8
      RAS3 orbitals                              0
      Secondary orbitals                       108
      Deleted orbitals                           0
      Number of basis functions                138
--

++    CI expansion specifications:
      ----------------------------

      Number of CSFs                          1764
      Number of determinants                  2485
      Number of root(s) required                 8
      CI roots used                              1     2     3     4     5     6     7     8
      weights                                0.125 0.125 0.125 0.125 0.125 0.125 0.125 0.125
      highest root included in the CI            8
      Root passed to geometry opt.               1
--

++    Final optimization conditions:
      ------------------------------

      Average CI energy                            -302.69999630
      RASSCF energy for state  1                   -302.96986717
      Super-CI energy                                -0.00000000
      RASSCF energy change                            0.00000000
      Max change in MO coefficients               0.204E-03
      Max non-diagonal density matrix element    -0.112E-03
      Maximum BLB matrix element                  0.352E-05
      (orbital pair  28,  34 in symmetry   1)
      Norm of electronic gradient            0.157E+00
--


      Final state energy(ies):
      ------------------------

::    RASSCF root number  1 Total energy:   -302.96986717
::    RASSCF root number  2 Total energy:   -302.81243919
::    RASSCF root number  3 Total energy:   -302.73191852
::    RASSCF root number  4 Total energy:   -302.69111096
::    RASSCF root number  5 Total energy:   -302.65054490
::    RASSCF root number  6 Total energy:   -302.59786418
::    RASSCF root number  7 Total energy:   -302.57775328
::    RASSCF root number  8 Total energy:   -302.56847219

++    Molecular orbitals:
      -------------------

      Pseudonatural active orbitals and approximate occupation numbers




      Molecular orbitals for symmetry species 1: a  


      Orbital                 1         2         3         4         5         6         7         8         9        10
      Energy           -15.6433  -15.6397  -11.3007  -11.2992  -11.2515  -11.2483  -11.2477   -1.2875   -1.0678   -1.0592
      Occ. No.           2.0000    2.0000    2.0000    2.0000    2.0000    2.0000    2.0000    2.0000    2.0000    2.0000

     1 C1     1s        -0.0001   -0.0000    0.0058    0.0001   -0.0024   -0.7277   -0.6854   -0.0168    0.0339   -0.0308
     2 C1     2s        -0.0004    0.0001    0.0017    0.0002    0.0002   -0.0009    0.0014    0.1165   -0.2263    0.2190
     3 C1     3s        -0.0001    0.0002    0.0007    0.0000    0.0002    0.0018    0.0026   -0.0169    0.0422   -0.0341
     4 C1     2px        0.0001   -0.0007   -0.0008    0.0001   -0.0002   -0.0003   -0.0002   -0.0464    0.0545    0.0113
     5 C1     3px        0.0001   -0.0008   -0.0004    0.0001   -0.0002   -0.0004   -0.0004    0.0094   -0.0182   -0.0036
     6 C1     2py        0.0002    0.0003   -0.0000   -0.0003    0.0004   -0.0001    0.0004    0.0269    0.0304    0.0825
     7 C1     3py        0.0002    0.0003    0.0002   -0.0003    0.0003    0.0001    0.0002    0.0011    0.0061   -0.0137
     8 C1     2pz       -0.0003    0.0014    0.0002    0.0004   -0.0004   -0.0001    0.0001   -0.0162    0.0400   -0.0027
     9 C1     3pz       -0.0003    0.0013    0.0004    0.0004   -0.0004   -0.0003   -0.0001    0.0045    0.0043    0.0153
    10 C1     3d2-      -0.0000   -0.0000    0.0000    0.0001   -0.0001    0.0001    0.0001    0.0003   -0.0025   -0.0041
    11 C1     3d1-      -0.0000   -0.0000    0.0000    0.0000   -0.0000    0.0000    0.0001   -0.0010   -0.0014   -0.0004
    12 C1     3d0       -0.0000    0.0000    0.0001    0.0000    0.0001   -0.0001    0.0000   -0.0056    0.0021   -0.0052
    13 C1     3d1+      -0.0000   -0.0001   -0.0000    0.0000    0.0000    0.0000    0.0000    0.0057   -0.0085    0.0008
    14 C1     3d2+       0.0000    0.0001   -0.0000   -0.0000    0.0000   -0.0001    0.0000    0.0025   -0.0096   -0.0140
    15 C2     1s        -0.0000   -0.0001   -0.0001   -0.0059   -0.0023   -0.6857    0.7274   -0.0169   -0.0005   -0.0465
    16 C2     2s        -0.0000   -0.0004   -0.0001   -0.0017    0.0002   -0.0010   -0.0013    0.1188   -0.0037    0.3199
    17 C2     3s         0.0002   -0.0002   -0.0000   -0.0007    0.0002    0.0016   -0.0027   -0.0170   -0.0037   -0.0550
    18 C2     2px       -0.0007    0.0003   -0.0001    0.0008   -0.0002   -0.0002    0.0002   -0.0477   -0.0418   -0.0316
    19 C2     3px       -0.0007    0.0003   -0.0001    0.0004   -0.0002   -0.0004    0.0004    0.0085    0.0142    0.0116
    20 C2     2py       -0.0003   -0.0001   -0.0003   -0.0000   -0.0004    0.0001    0.0004   -0.0262    0.0790   -0.0321
    21 C2     3py       -0.0003   -0.0001   -0.0003    0.0002   -0.0003   -0.0001    0.0002   -0.0009   -0.0061    0.0140
    22 C2     2pz        0.0013   -0.0006   -0.0005   -0.0002   -0.0004   -0.0002   -0.0000   -0.0153   -0.0228   -0.0321
    23 C2     3pz        0.0012   -0.0007   -0.0004   -0.0004   -0.0004   -0.0003    0.0001    0.0058   -0.0139    0.0054
    24 C2     3d2-       0.0000   -0.0000    0.0001    0.0000    0.0001   -0.0000    0.0001   -0.0003   -0.0044    0.0009
    25 C2     3d1-       0.0000    0.0000    0.0000    0.0000    0.0000   -0.0000    0.0001    0.0011   -0.0011   -0.0007
    26 C2     3d0        0.0000   -0.0000   -0.0000   -0.0001    0.0001   -0.0001   -0.0000   -0.0057    0.0024   -0.0049
    27 C2     3d1+      -0.0001   -0.0000   -0.0000    0.0000    0.0000    0.0000   -0.0000    0.0058    0.0046    0.0066
    28 C2     3d2+       0.0001   -0.0000    0.0000    0.0000    0.0000   -0.0001   -0.0000    0.0029    0.0163   -0.0025
    29 C3     1s         0.0002   -0.0001   -0.0035   -0.9996   -0.0063    0.0038   -0.0040   -0.0318   -0.0327   -0.0170
    30 C3     2s         0.0007   -0.0002    0.0001    0.0007    0.0018   -0.0007    0.0014    0.2867    0.2700    0.1902
    31 C3     3s         0.0002    0.0000    0.0000    0.0032    0.0007   -0.0003    0.0005   -0.0237   -0.0360   -0.0144
    32 C3     2px        0.0011    0.0004   -0.0002    0.0003   -0.0004    0.0001    0.0002   -0.0548   -0.1054    0.1268
    33 C3     3px        0.0011    0.0004   -0.0002   -0.0003   -0.0004    0.0002   -0.0001    0.0075    0.0044   -0.0439
    34 C3     2py        0.0006   -0.0005    0.0002   -0.0010    0.0008   -0.0005    0.0011   -0.0499    0.0149   -0.0095
    35 C3     3py        0.0005   -0.0005    0.0003   -0.0015    0.0010   -0.0005    0.0011    0.0501    0.0062    0.0108
    36 C3     2pz       -0.0014    0.0005    0.0008    0.0006   -0.0005   -0.0002   -0.0004    0.0497    0.1211   -0.0347
    37 C3     3pz       -0.0013    0.0006    0.0007    0.0013   -0.0003   -0.0001   -0.0005   -0.0260    0.0049    0.0278
    38 C3     3d2-      -0.0003    0.0000    0.0000    0.0000   -0.0000   -0.0001    0.0001    0.0046    0.0089   -0.0113
    39 C3     3d1-       0.0002   -0.0001   -0.0001    0.0000   -0.0002    0.0000    0.0000   -0.0033   -0.0138    0.0045
    40 C3     3d0       -0.0001    0.0000   -0.0000    0.0001    0.0001    0.0000    0.0000    0.0019    0.0050   -0.0067
    41 C3     3d1+       0.0003   -0.0001   -0.0001   -0.0000   -0.0000    0.0000   -0.0000   -0.0116   -0.0204    0.0202
    42 C3     3d2+      -0.0000   -0.0000    0.0000    0.0002    0.0001    0.0001   -0.0000    0.0009    0.0084    0.0004
    43 C4     1s         0.0000    0.0002    0.9996   -0.0035   -0.0062    0.0039    0.0037   -0.0301    0.0358    0.0124
    44 C4     2s        -0.0000    0.0009   -0.0007   -0.0000    0.0018   -0.0008   -0.0013    0.2742   -0.3367   -0.0724
    45 C4     3s         0.0001    0.0002   -0.0031    0.0000    0.0007   -0.0003   -0.0004   -0.0223    0.0358    0.0161
    46 C4     2px        0.0007    0.0008   -0.0003    0.0002   -0.0004    0.0000   -0.0002   -0.0469   -0.0142    0.1585
    47 C4     3px        0.0007    0.0009    0.0003    0.0002   -0.0004    0.0002    0.0001    0.0068    0.0300   -0.0302
    48 C4     2py        0.0003   -0.0007   -0.0010    0.0002   -0.0008    0.0005    0.0011    0.0498   -0.0024    0.0161
    49 C4     3py        0.0004   -0.0006   -0.0015    0.0002   -0.0010    0.0005    0.0011   -0.0469    0.0141   -0.0060
    50 C4     2pz        0.0001   -0.0012   -0.0006   -0.0008   -0.0006   -0.0002    0.0004    0.0428   -0.0549   -0.1073
    51 C4     3pz        0.0003   -0.0013   -0.0013   -0.0007   -0.0003   -0.0001    0.0005   -0.0237   -0.0231    0.0106
    52 C4     3d2-       0.0000    0.0003    0.0000    0.0000    0.0000    0.0001    0.0001   -0.0039   -0.0018    0.0138
    53 C4     3d1-      -0.0000   -0.0002    0.0000   -0.0000    0.0002   -0.0000    0.0001    0.0024   -0.0054   -0.0123
    54 C4     3d0       -0.0000   -0.0001   -0.0001    0.0000    0.0001    0.0000   -0.0000    0.0014    0.0014   -0.0079
    55 C4     3d1+      -0.0000    0.0002    0.0001    0.0001   -0.0000    0.0000    0.0000   -0.0098   -0.0006    0.0276
    56 C4     3d2+      -0.0001   -0.0000   -0.0002   -0.0000    0.0001    0.0001    0.0000    0.0001   -0.0053   -0.0053
    57 C5     1s        -0.0001   -0.0001    0.0067   -0.0069    0.9997   -0.0033    0.0001   -0.0264    0.0095   -0.0175
    58 C5     2s        -0.0003   -0.0002    0.0018   -0.0018    0.0001   -0.0002    0.0000    0.1606   -0.0626    0.1214
    59 C5     3s        -0.0000   -0.0000    0.0007   -0.0007   -0.0030   -0.0002    0.0000   -0.0322    0.0094   -0.0161
    60 C5     2px       -0.0017   -0.0013   -0.0002    0.0003   -0.0000   -0.0010    0.0000   -0.0022   -0.0200    0.0423
    61 C5     3px       -0.0016   -0.0012   -0.0002    0.0003   -0.0002   -0.0009    0.0000   -0.0101    0.0016   -0.0073
    62 C5     2py       -0.0005    0.0006    0.0001    0.0001    0.0000   -0.0000   -0.0004    0.0004    0.1167    0.0535
    63 C5     3py       -0.0005    0.0006    0.0005    0.0005    0.0000   -0.0000   -0.0004   -0.0002    0.0041    0.0027
    64 C5     2pz        0.0005    0.0003    0.0006   -0.0006   -0.0002   -0.0006    0.0000    0.0745   -0.0093    0.0168
    65 C5     3pz        0.0005    0.0004    0.0003   -0.0003   -0.0007   -0.0005    0.0000   -0.0193    0.0044   -0.0063
    66 C5     3d2-      -0.0000    0.0000   -0.0000   -0.0000   -0.0000    0.0000    0.0001   -0.0001    0.0033    0.0016
    67 C5     3d1-      -0.0000    0.0000    0.0001    0.0001   -0.0000   -0.0000    0.0000    0.0003    0.0212    0.0094
    68 C5     3d0        0.0001    0.0001   -0.0001    0.0001    0.0002   -0.0000    0.0000    0.0093   -0.0005    0.0006
    69 C5     3d1+      -0.0001   -0.0001    0.0000   -0.0000   -0.0000   -0.0001    0.0000    0.0037   -0.0013    0.0029
    70 C5     3d2+       0.0001    0.0001   -0.0000    0.0000    0.0001   -0.0000    0.0000   -0.0067    0.0008   -0.0010
    71 N6     1s         0.9916   -0.1312    0.0001   -0.0000   -0.0000    0.0000    0.0000   -0.0187   -0.0113    0.0097
    72 N6     2s         0.0027   -0.0006    0.0004   -0.0008    0.0000    0.0001    0.0001    0.3092    0.4232   -0.1239
    73 N6     3s        -0.0002   -0.0003    0.0003   -0.0001    0.0001   -0.0001    0.0001   -0.0125   -0.0064    0.0085
    74 N6     2px       -0.0001    0.0000   -0.0002   -0.0002   -0.0000   -0.0001    0.0002    0.1077    0.0840   -0.0477
    75 N6     3px       -0.0006    0.0002   -0.0003   -0.0002    0.0000   -0.0001    0.0002   -0.0267   -0.0397   -0.0051
    76 N6     2py       -0.0014    0.0005   -0.0006   -0.0006   -0.0003    0.0002    0.0000    0.0631    0.0927   -0.0322
    77 N6     3py        0.0013    0.0005   -0.0006   -0.0006   -0.0003    0.0003    0.0000    0.0018   -0.0464   -0.0291
    78 N6     2pz       -0.0001   -0.0000    0.0001    0.0002   -0.0000   -0.0000    0.0001   -0.1004   -0.0840    0.0561
    79 N6     3pz        0.0005   -0.0001    0.0003    0.0002    0.0000    0.0000    0.0001    0.0282    0.0414    0.0039
    80 N6     3d2-      -0.0000    0.0000   -0.0000    0.0000   -0.0000    0.0000    0.0000   -0.0012    0.0062    0.0035
    81 N6     3d1-       0.0000   -0.0001    0.0000   -0.0001    0.0001   -0.0000    0.0000    0.0009   -0.0063   -0.0031
    82 N6     3d0       -0.0002    0.0003   -0.0000    0.0000    0.0000    0.0000   -0.0000    0.0006    0.0053    0.0026
    83 N6     3d1+      -0.0001    0.0001    0.0000   -0.0002    0.0000   -0.0000    0.0000   -0.0138   -0.0144    0.0019
    84 N6     3d2+      -0.0003    0.0005   -0.0000    0.0000   -0.0000   -0.0000    0.0001    0.0014    0.0090    0.0072
    85 N7     1s         0.1310    0.9916    0.0000   -0.0001   -0.0000    0.0000   -0.0000   -0.0173    0.0007    0.0140
    86 N7     2s         0.0002    0.0024    0.0007   -0.0005    0.0000    0.0000   -0.0001    0.2947   -0.2078   -0.3954
    87 N7     3s        -0.0003   -0.0001    0.0001   -0.0003    0.0001   -0.0001   -0.0001   -0.0103   -0.0027    0.0081
    88 N7     2px       -0.0001    0.0001    0.0003    0.0002   -0.0000   -0.0001   -0.0002    0.1012   -0.0261   -0.0915
    89 N7     3px       -0.0000   -0.0007    0.0002    0.0003    0.0000   -0.0001   -0.0002   -0.0227    0.0308    0.0249
    90 N7     2py        0.0001    0.0013   -0.0007   -0.0006    0.0003   -0.0002    0.0000   -0.0632    0.0446    0.0922
    91 N7     3py       -0.0008   -0.0010   -0.0006   -0.0006    0.0003   -0.0003    0.0001   -0.0051   -0.0522   -0.0140
    92 N7     2pz        0.0000   -0.0003   -0.0002   -0.0002   -0.0000   -0.0000   -0.0001   -0.0933    0.0205    0.0957
    93 N7     3pz        0.0000    0.0005   -0.0002   -0.0002    0.0000    0.0000   -0.0001    0.0242   -0.0317   -0.0271
    94 N7     3d2-      -0.0001    0.0000    0.0000   -0.0000    0.0000   -0.0000    0.0000    0.0017    0.0069    0.0018
    95 N7     3d1-       0.0001   -0.0001   -0.0001    0.0000   -0.0001    0.0000    0.0000   -0.0013   -0.0067   -0.0021
    96 N7     3d0        0.0002   -0.0002   -0.0000    0.0000    0.0000    0.0000    0.0000    0.0001   -0.0057   -0.0018
    97 N7     3d1+       0.0001   -0.0001    0.0002   -0.0000    0.0000   -0.0000   -0.0000   -0.0127    0.0088    0.0112
    98 N7     3d2+       0.0004   -0.0004   -0.0000    0.0000   -0.0000   -0.0000   -0.0001    0.0009   -0.0113   -0.0014
    99 H8     1s        -0.0011   -0.0008   -0.0001    0.0002    0.0008   -0.0012    0.0000    0.0412   -0.0150    0.0244
   100 H8     2s        -0.0007   -0.0005    0.0000    0.0000    0.0000   -0.0009    0.0000   -0.0029    0.0027   -0.0060
   101 H8     2px       -0.0000   -0.0000   -0.0000    0.0000   -0.0001   -0.0001    0.0000    0.0037   -0.0020    0.0035
   102 H8     2py        0.0000   -0.0000   -0.0001   -0.0001   -0.0000    0.0000    0.0000    0.0000    0.0005    0.0002
   103 H8     2pz       -0.0001   -0.0001    0.0000   -0.0000    0.0000   -0.0000    0.0000    0.0040   -0.0017    0.0031
   104 H9     1s         0.0012    0.0009    0.0003   -0.0004    0.0009   -0.0000    0.0000    0.0602   -0.0244    0.0521
   105 H9     2s         0.0009    0.0006    0.0003   -0.0003    0.0001   -0.0001    0.0000    0.0044    0.0026   -0.0034
   106 H9     2px       -0.0000   -0.0000   -0.0000    0.0000    0.0001    0.0000   -0.0000   -0.0033    0.0022   -0.0044
   107 H9     2py        0.0000   -0.0000   -0.0000   -0.0000    0.0000    0.0000    0.0000   -0.0000    0.0009    0.0003
   108 H9     2pz        0.0001    0.0001    0.0000   -0.0001   -0.0001   -0.0000    0.0000    0.0063   -0.0025    0.0049
   109 H10    1s         0.0002   -0.0010   -0.0003   -0.0001   -0.0013    0.0005    0.0013    0.0003   -0.0969   -0.0245
   110 H10    2s         0.0001   -0.0007   -0.0008   -0.0000   -0.0008    0.0003    0.0009   -0.0322    0.0200    0.0122
   111 H10    2px       -0.0000   -0.0000    0.0000   -0.0000   -0.0000   -0.0000    0.0000   -0.0002   -0.0039    0.0022
   112 H10    2py        0.0000   -0.0001   -0.0001   -0.0000   -0.0001    0.0000    0.0001    0.0038   -0.0117   -0.0039
   113 H10    2pz       -0.0000    0.0000   -0.0000    0.0000   -0.0000    0.0000    0.0000    0.0013   -0.0023   -0.0024
[...]
 <    6 |             0.360               0.370
 <    7 |             0.360               0.370
 <    8 |             0.000               0.000

  CASPT2 TIMING INFO FOR STATE      8

                         cpu time  (s)  wall time (s) 
                         -------------  ------------- 

  Initialization                  0.04          0.04
  - integral transforms           0.00          0.00
  - density matrices              0.03          0.04
  CASPT2 equations               40.74         53.54
  - H0 S/B matrices               0.02          0.01
  - H0 S/B diag                   1.28          1.56
  - H0 NA diag                    0.00          0.00
  - RHS construction              0.66          0.83
  - PCG solver                   38.74         51.08
    - scaling                     0.09          1.81
    - lin. comb.                  0.28         16.75
    - inner products              0.37          9.58
    - basis transforms            1.81         15.46
    - sigma routines             35.13        179.44
  - array collection              0.00          0.00
  Properties                      0.00          0.00
  Gradient/MS coupling            2.52          2.60
 Total time                      43.30         56.18

--

  Total CASPT2 energies:
::    CASPT2 Root  1     Total energy:   -303.90443731
::    CASPT2 Root  2     Total energy:   -303.75886360
::    CASPT2 Root  3     Total energy:   -303.67840517
::    CASPT2 Root  4     Total energy:   -303.66359986
::    CASPT2 Root  5     Total energy:   -303.61360230
::    CASPT2 Root  6     Total energy:   -303.58783261
::    CASPT2 Root  7     Total energy:   -303.58871009
::    CASPT2 Root  8     Total energy:   -303.55020191

  Note that these CASPT2 energies are obtained using
  the XMS Fock operator and thus do not correspond
  to the true single-state CASPT2 ones.

  Relative CASPT2 energies:
 Root          (a.u.)       (eV)    (cm^-1)   (kJ/mol)
    1      0.00000000       0.00        0.0       0.00
    2      0.14557371       3.96    31949.7     382.20
    3      0.22603213       6.15    49608.3     593.45
    4      0.24083745       6.55    52857.7     632.32
    5      0.29083501       7.91    63830.9     763.59
    6      0.31660470       8.62    69486.7     831.25
    7      0.31572722       8.59    69294.1     828.94
    8      0.35423539       9.64    77745.7     930.04

++ Multi-State CASPT2 section:
********************************************************************************
  MULTI-STATE CASPT2 SECTION
--------------------------------------------------------------------------------

  Output diagonal energies have been shifted. Add   -303.00000000000000     
  Effective Hamiltonian matrix (Asymmetric):

                1               2               3               4               5
   1        -0.90407666     -0.00152668      0.01697962      0.00337268     -0.00591659
   2        -0.00180885     -0.75734269      0.00023454     -0.00435894      0.00204433
   3         0.00138191     -0.00391731     -0.67421453      0.00511959      0.00075152
   4         0.00158409      0.00071760     -0.00221803     -0.64143108      0.00026617
   5        -0.00555026      0.00176309      0.00045473     -0.00285746     -0.61371077
   6        -0.00355460     -0.00161302      0.00079585     -0.00544302     -0.00039048
   7        -0.00091953     -0.00081774      0.00031206     -0.00057357     -0.00014631
   8         0.00542930     -0.00100468     -0.00357152      0.00042934      0.00456735

                6               7               8
   1        -0.00161555     -0.03059999      0.00965492
   2         0.00003450     -0.00057936     -0.00281968
   3        -0.01468995      0.00051922     -0.00491330
   4        -0.00956668      0.00359796     -0.01858335
   5         0.00164013     -0.00263111      0.00130048
   6        -0.61545556     -0.00355309      0.03824634
   7        -0.00064929     -0.58571216      0.02006923
   8         0.00036188     -0.02098631     -0.55370941

  Effective Hamiltonian matrix (Symmetric):

                1               2               3               4               5
   1        -0.90407666
   2        -0.00166776     -0.75734269
   3         0.00918076     -0.00184138     -0.67421453
   4         0.00247839     -0.00182067      0.00145078     -0.64143108
   5        -0.00573342      0.00190371      0.00060313     -0.00129565     -0.61371077
   6        -0.00258507     -0.00078926     -0.00694705     -0.00750485      0.00062482
   7        -0.01575976     -0.00069855      0.00041564      0.00151219     -0.00138871
   8         0.00754211     -0.00191218     -0.00424241     -0.00907700      0.00293392

                6               7               8
   6        -0.61545556
   7        -0.00210119     -0.58571216
   8         0.01930411     -0.00045854     -0.55370941

       Total XMS-CASPT2 energies:
::    XMS-CASPT2 Root  1     Total energy:   -303.90557513
::    XMS-CASPT2 Root  2     Total energy:   -303.75745550
::    XMS-CASPT2 Root  3     Total energy:   -303.67467766
::    XMS-CASPT2 Root  4     Total energy:   -303.64362332
::    XMS-CASPT2 Root  5     Total energy:   -303.61944467
::    XMS-CASPT2 Root  6     Total energy:   -303.61369709
::    XMS-CASPT2 Root  7     Total energy:   -303.58484195
::    XMS-CASPT2 Root  8     Total energy:   -303.54633751

       Eigenvectors:
            0.99738533     -0.00893970      0.03870364      0.00835461     -0.02452969
            0.01034245      0.99936175     -0.02403925     -0.01725864      0.00301498
           -0.03970473      0.02393685      0.99242182     -0.00712151     -0.10284203
           -0.00976176      0.01660301     -0.01934154      0.97266293     -0.19742044
            0.02000653     -0.01375569     -0.00749222      0.03498880      0.00743416
            0.00953547      0.00610830      0.11135389      0.22319966      0.92491688
            0.04937884      0.00303207      0.00493959     -0.01396717      0.05252545
           -0.02267852      0.01057429      0.01299083      0.04765570     -0.30257638

           -0.02234840     -0.04673343      0.01701871
            0.01416841     -0.00465678     -0.00786496
            0.01170181      0.00003233     -0.04674788
           -0.02649233      0.02102480     -0.11429377
            0.99741917     -0.03487611      0.04487261
           -0.02794240     -0.03451539      0.28321487
            0.03577693      0.99586616     -0.03930308
           -0.03943670      0.05652603      0.94901587

--

  THE ORIGINAL CI ARRAYS ARE NOW MIXED AS LINEAR
  COMBINATIONS, GIVEN BY THE EIGENVECTORS.
  A NEW JOBIPH FILE NAMED 'JOBMIX' IS PREPARED.
********************************************************************************

++ Mixed CI coefficients:
  The CI coefficients for the MIXED state nr.   1
--------------------------------------------------------------------------------
 CI COEFFICIENTS LARGER THAN  0.50D-01
  Occupation of active orbitals, and spin coupling
  of open shells. (u,d: Spin up or down).
  SGUGA info is (Midvert:IsyUp:UpperWalk/LowerWalk)
        Conf  SGUGA info        Occupation    Coefficient         Weight
           1  ( 1:1:   1/   1)   22220000        0.957848       0.917472
           5  ( 2:1:   4/   1)   222u000d        0.062873       0.003953
          11  ( 2:1:   2/   3)   2u220d00       -0.059313       0.003518
          18  ( 3:1:   1/   1)   22202000       -0.065930       0.004347
          58  ( 3:1:   1/   5)   22022000       -0.191010       0.036485
          81  ( 3:1:   4/   7)   u2d2u0d0        0.070522       0.004973
         113  ( 3:1:   6/  10)   02220020       -0.057104       0.003261
         143  ( 4:1:   2/   5)   u2u2d0d0        0.053519       0.002864

  The CI coefficients for the MIXED state nr.   2
--------------------------------------------------------------------------------
 CI COEFFICIENTS LARGER THAN  0.50D-01
  Occupation of active orbitals, and spin coupling
  of open shells. (u,d: Spin up or down).
  SGUGA info is (Midvert:IsyUp:UpperWalk/LowerWalk)
        Conf  SGUGA info        Occupation    Coefficient         Weight
           2  ( 2:1:   1/   1)   222ud000        0.945402       0.893785
          10  ( 2:1:   1/   3)   2u22d000       -0.120990       0.014639
          68  ( 3:1:   1/   6)   2ud22000        0.234399       0.054943
          78  ( 3:1:   1/   7)   u2d22000        0.050978       0.002599
         320  ( 5:1:   7/   9)   022ud020       -0.057056       0.003255

  The CI coefficients for the MIXED state nr.   3
--------------------------------------------------------------------------------
 CI COEFFICIENTS LARGER THAN  0.50D-01
  Occupation of active orbitals, and spin coupling
  of open shells. (u,d: Spin up or down).
  SGUGA info is (Midvert:IsyUp:UpperWalk/LowerWalk)
        Conf  SGUGA info        Occupation    Coefficient         Weight
           2  ( 2:1:   1/   1)   222ud000       -0.133645       0.017861
           6  ( 2:1:   1/   2)   22u2d000       -0.190781       0.036397
          10  ( 2:1:   1/   3)   2u22d000       -0.851456       0.724977
          28  ( 3:1:   1/   2)   22ud2000       -0.438724       0.192479
         540  ( 5:1:   7/  20)   0u22d020        0.053655       0.002879

  The CI coefficients for the MIXED state nr.   4
--------------------------------------------------------------------------------
 CI COEFFICIENTS LARGER THAN  0.50D-01
  Occupation of active orbitals, and spin coupling
  of open shells. (u,d: Spin up or down).
  SGUGA info is (Midvert:IsyUp:UpperWalk/LowerWalk)
        Conf  SGUGA info        Occupation    Coefficient         Weight
           3  ( 2:1:   2/   1)   222u0d00        0.905904       0.820661
           6  ( 2:1:   1/   2)   22u2d000       -0.289263       0.083673
          25  ( 3:1:   8/   1)   22200u0d       -0.056403       0.003181
          69  ( 3:1:   2/   6)   2ud2ud00        0.131020       0.017166
         136  ( 4:1:   1/   4)   2uu2dd00        0.094802       0.008987
         214  ( 5:1:   1/   4)   220u2d00        0.144312       0.020826
         258  ( 5:1:   5/   6)   u2duudd0        0.052909       0.002799
         321  ( 5:1:   8/   9)   022u0d20       -0.053128       0.002823

  The CI coefficients for the MIXED state nr.   5
--------------------------------------------------------------------------------
 CI COEFFICIENTS LARGER THAN  0.50D-01
  Occupation of active orbitals, and spin coupling
  of open shells. (u,d: Spin up or down).
  SGUGA info is (Midvert:IsyUp:UpperWalk/LowerWalk)
        Conf  SGUGA info        Occupation    Coefficient         Weight
           3  ( 2:1:   2/   1)   222u0d00       -0.259152       0.067160
           5  ( 2:1:   4/   1)   222u000d       -0.052669       0.002774
           6  ( 2:1:   1/   2)   22u2d000       -0.813778       0.662235
           7  ( 2:1:   2/   2)   22u20d00        0.095894       0.009196
          10  ( 2:1:   1/   3)   2u22d000        0.174553       0.030469
          11  ( 2:1:   2/   3)   2u220d00       -0.319931       0.102356
          12  ( 2:1:   3/   3)   2u2200d0        0.117895       0.013899
          13  ( 2:1:   4/   3)   2u22000d       -0.075160       0.005649
          16  ( 2:1:   3/   4)   u22200d0       -0.128109       0.016412
          29  ( 3:1:   2/   2)   22udud00       -0.120160       0.014438
          38  ( 3:1:   1/   3)   2u2d2000       -0.134892       0.018196
         121  ( 4:1:   4/   1)   22uud00d        0.053582       0.002871
         214  ( 5:1:   1/   4)   220u2d00       -0.070337       0.004947
         396  ( 5:1:   3/  13)   2u0220d0        0.062514       0.003908
         416  ( 5:1:   3/  14)   u20220d0       -0.087524       0.007660

  The CI coefficients for the MIXED state nr.   6
--------------------------------------------------------------------------------
 CI COEFFICIENTS LARGER THAN  0.50D-01
  Occupation of active orbitals, and spin coupling
  of open shells. (u,d: Spin up or down).
  SGUGA info is (Midvert:IsyUp:UpperWalk/LowerWalk)
        Conf  SGUGA info        Occupation    Coefficient         Weight
           1  ( 1:1:   1/   1)   22220000       -0.051699       0.002673
           6  ( 2:1:   1/   2)   22u2d000        0.054719       0.002994
          11  ( 2:1:   2/   3)   2u220d00       -0.056530       0.003196
          18  ( 3:1:   1/   1)   22202000       -0.905934       0.820717
          58  ( 3:1:   1/   5)   22022000        0.057582       0.003316
          88  ( 3:1:   1/   8)   20222000        0.369094       0.136230
          98  ( 3:1:   1/   9)   ud222000        0.059877       0.003585
         657  ( 6:1:   4/   6)   02202020        0.055540       0.003085

  The CI coefficients for the MIXED state nr.   7
--------------------------------------------------------------------------------
 CI COEFFICIENTS LARGER THAN  0.50D-01
  Occupation of active orbitals, and spin coupling
  of open shells. (u,d: Spin up or down).
  SGUGA info is (Midvert:IsyUp:UpperWalk/LowerWalk)
        Conf  SGUGA info        Occupation    Coefficient         Weight
           1  ( 1:1:   1/   1)   22220000       -0.054366       0.002956
           6  ( 2:1:   1/   2)   22u2d000        0.101457       0.010293
           7  ( 2:1:   2/   2)   22u20d00       -0.825064       0.680730
          11  ( 2:1:   2/   3)   2u220d00       -0.453354       0.205530
          29  ( 3:1:   2/   2)   22udud00       -0.192573       0.037084
          39  ( 3:1:   2/   3)   2u2dud00       -0.080885       0.006542
         118  ( 4:1:   1/   1)   22uudd00        0.070301       0.004942
         154  ( 5:1:   1/   1)   22u02d00        0.075241       0.005661
         394  ( 5:1:   1/  13)   2u022d00        0.073930       0.005466
         418  ( 5:1:   5/  14)   u202udd0       -0.064073       0.004105
         481  ( 5:1:   8/  17)   02u20d20        0.051000       0.002601

  The CI coefficients for the MIXED state nr.   8
--------------------------------------------------------------------------------
 CI COEFFICIENTS LARGER THAN  0.50D-01
  Occupation of active orbitals, and spin coupling
  of open shells. (u,d: Spin up or down).
  SGUGA info is (Midvert:IsyUp:UpperWalk/LowerWalk)
        Conf  SGUGA info        Occupation    Coefficient         Weight
           3  ( 2:1:   2/   1)   222u0d00       -0.126695       0.016052
           6  ( 2:1:   1/   2)   22u2d000       -0.298541       0.089127
           7  ( 2:1:   2/   2)   22u20d00       -0.503609       0.253622
          10  ( 2:1:   1/   3)   2u22d000        0.072742       0.005291
          11  ( 2:1:   2/   3)   2u220d00        0.698254       0.487559
          16  ( 2:1:   3/   4)   u22200d0       -0.050430       0.002543
          18  ( 3:1:   1/   1)   22202000       -0.065050       0.004231
          29  ( 3:1:   2/   2)   22udud00        0.259164       0.067166
          39  ( 3:1:   2/   3)   2u2dud00       -0.073034       0.005334
         118  ( 4:1:   1/   1)   22uudd00       -0.088369       0.007809
         174  ( 5:1:   1/   2)   2u202d00       -0.057068       0.003257
         394  ( 5:1:   1/  13)   2u022d00       -0.101478       0.010298

--

++ I/O STATISTICS
 
  I. General I/O information
  - - - - - - - - - - - - - - - - - - - - - - - - - - - - - - - - - - - - - - - - - - -
  Unit  Name          Flsize      Write/Read            MBytes           Write/Read
                      (MBytes)       Calls              In/Out           Time, sec.
  - - - - - - - - - - - - - - - - - - - - - - - - - - - - - - - - - - - - - - - - - - -
   1  RUNFILE          13.96 .     140/    1608 .      1.0/     11.5 .       0/       0
   2  LUSOLV            1.97 .     592/     600 .     33.8/     34.9 .       0/       0
   3  LUSBT            15.88 .     592/   21132 .    112.7/   4340.9 .       1/       5
   4  LUHLF1            0.00 .       0/       0 .      0.0/      0.0 .       0/       0
   5  LUHLF2            0.00 .       0/       0 .      0.0/      0.0 .       0/       0
   6  LUHLF3            0.00 .       0/       0 .      0.0/      0.0 .       0/       0
   7  DRARR            13.56 .       4/      64 .     13.6/    249.9 .       0/       0
   8  DRARRT            0.00 .       0/       0 .      0.0/      0.0 .       0/       0
   9  RHS_01           27.15 .     104/    2262 .    217.0/   4720.3 .       0/       0
  10  RHS_02           27.15 .    2510/    5748 .   5051.2/  12075.4 .       2/       6
  11  RHS_03           27.15 .    2718/    8984 .   5712.2/  18788.0 .       1/       3
  12  RHS_04           27.15 .    7688/   24008 .  14199.9/  50896.1 .       3/      13
  13  RHS_05           27.15 .   13674/   15624 .  29370.5/  33439.6 .       8/      12
  14  RHS_06           27.15 .     240/     968 .    463.5/   1983.8 .       0/       1
  15  H0T_01            0.00 .       0/       0 .      0.0/      0.0 .       0/       0
  16  H0T_02            0.00 .       0/       0 .      0.0/      0.0 .       0/       0
  17  H0T_03            0.00 .       0/       0 .      0.0/      0.0 .       0/       0
  18  H0T_04            0.00 .       0/       0 .      0.0/      0.0 .       0/       0
  19  LUDMAT            0.45 .      88/      64 .      4.1/      3.6 .       0/       0
  20  LUCIEX            0.22 .      24/     288 .      0.3/      3.9 .       0/       0
  21  MOLONE            0.91 .      12/       1 .      1.1/      0.1 .       0/       0
  22  MOLINT            0.00 .       0/       0 .      0.0/      0.0 .       0/       0
  23  JOBIPH            4.08 .       1/     114 .      0.0/      2.6 .       0/       0
  24  CHRED             0.16 .       0/      22 .      0.0/      0.9 .       0/       0
  25  CHVEC1           48.73 .       0/       9 .      0.0/    438.6 .       0/       0
  26  CHORST            0.03 .       0/      12 .      0.0/      0.0 .       0/       0
  27  CHOMAP            0.01 .       0/       0 .      0.0/      0.0 .       0/       0
  28  ONEINT            2.82 .       0/      96 .      0.0/     22.2 .       0/       0
  29  JOBMIX            4.08 .      47/       0 .      1.6/      0.0 .       0/       0
  - - - - - - - - - - - - - - - - - - - - - - - - - - - - - - - - - - - - - - - - - - -
   *  TOTAL           269.73 .   28434/   81604 .  55182.3/ 127012.4 .      17/      44
  - - - - - - - - - - - - - - - - - - - - - - - - - - - - - - - - - - - - - - - - - - -
 
  II. I/O Access Patterns
  - - - - - - - - - - - - - - - - - - - -
  Unit  Name               % of random
                         Write/Read calls
  - - - - - - - - - - - - - - - - - - - -
   1  RUNFILE             28.6/  11.1
   2  LUSOLV              16.0/  17.3
   3  LUSBT               95.8/  78.6
   4  LUHLF1               0.0/   0.0
   5  LUHLF2               0.0/   0.0
   6  LUHLF3               0.0/   0.0
   7  DRARR               50.0/  89.1
   8  DRARRT               0.0/   0.0
   9  RHS_01              29.8/  30.8
  10  RHS_02              97.1/  30.1
  11  RHS_03              97.3/  30.5
  12  RHS_04              97.8/  28.4
  13  RHS_05              78.5/  28.1
  14  RHS_06              59.6/  14.9
  15  H0T_01               0.0/   0.0
  16  H0T_02               0.0/   0.0
  17  H0T_03               0.0/   0.0
  18  H0T_04               0.0/   0.0
  19  LUDMAT              26.1/  37.5
  20  LUCIEX              37.5/  51.4
  21  MOLONE              16.7/ 100.0
  22  MOLINT               0.0/   0.0
  23  JOBIPH             100.0/  98.2
  24  CHRED                0.0/  40.9
  25  CHVEC1               0.0/  88.9
  26  CHORST               0.0/   0.0
  27  CHOMAP               0.0/   0.0
  28  ONEINT               0.0/  16.7
  29  JOBMIX              97.9/   0.0
  - - - - - - - - - - - - - - - - - - - -
--
--- Stop Module: caspt2 at Fri Sep 23 06:59:02 2022 /rc=_RC_ALL_IS_WELL_ ---
*** files: xmldump
    saved to directory /scratch/adaogomes.l/dbh/molcas/sa8/dbh-x-caspt2-88-sa8
--- Module caspt2 spent 4 minutes 45 seconds ---

    Timing: Wall=341.78 User=274.80 System=33.54
