 Entering Gaussian System, Link 0=g16
 Input=copt_TS_8a.com
 Output=copt_TS_8a.log
 Initial command:
 /afs/cad/linux/gaussian/g16_C.01/AVX2/g16/l1.exe "/home/s/spl29/Marek/1a-rev/Gau-111705.inp" -scrdir="/home/s/spl29/Marek/1a-rev/"
 Entering Link 1 = /afs/cad/linux/gaussian/g16_C.01/AVX2/g16/l1.exe PID=    111706.
  
 Copyright (c) 1988-2019, Gaussian, Inc.  All Rights Reserved.
  
 This is part of the Gaussian(R) 16 program.  It is based on
 the Gaussian(R) 09 system (copyright 2009, Gaussian, Inc.),
 the Gaussian(R) 03 system (copyright 2003, Gaussian, Inc.),
 the Gaussian(R) 98 system (copyright 1998, Gaussian, Inc.),
 the Gaussian(R) 94 system (copyright 1995, Gaussian, Inc.),
 the Gaussian 92(TM) system (copyright 1992, Gaussian, Inc.),
 the Gaussian 90(TM) system (copyright 1990, Gaussian, Inc.),
 the Gaussian 88(TM) system (copyright 1988, Gaussian, Inc.),
 the Gaussian 86(TM) system (copyright 1986, Carnegie Mellon
 University), and the Gaussian 82(TM) system (copyright 1983,
 Carnegie Mellon University). Gaussian is a federally registered
 trademark of Gaussian, Inc.
  
 This software contains proprietary and confidential information,
 including trade secrets, belonging to Gaussian, Inc.
  
 This software is provided under written license and may be
 used, copied, transmitted, or stored only in accord with that
 written license.
  
 The following legend is applicable only to US Government
 contracts under FAR:
  
                    RESTRICTED RIGHTS LEGEND
  
 Use, reproduction and disclosure by the US Government is
 subject to restrictions as set forth in subparagraphs (a)
 and (c) of the Commercial Computer Software - Restricted
 Rights clause in FAR 52.227-19.
  
 Gaussian, Inc.
 340 Quinnipiac St., Bldg. 40, Wallingford CT 06492
  
  
 ---------------------------------------------------------------
 Warning -- This program may not be used in any manner that
 competes with the business of Gaussian, Inc. or will provide
 assistance to any competitor of Gaussian, Inc.  The licensee
 of this program is prohibited from giving any competitor of
 Gaussian, Inc. access to this program.  By using this program,
 the user acknowledges that Gaussian, Inc. is engaged in the
 business of creating and licensing software in the field of
 computational chemistry and represents and warrants to the
 licensee that it is not a competitor of Gaussian, Inc. and that
 it will not use this program in any manner prohibited above.
 ---------------------------------------------------------------
  

 Cite this work as:
 Gaussian 16, Revision C.01,
 M. J. Frisch, G. W. Trucks, H. B. Schlegel, G. E. Scuseria, 
 M. A. Robb, J. R. Cheeseman, G. Scalmani, V. Barone, 
 G. A. Petersson, H. Nakatsuji, X. Li, M. Caricato, A. V. Marenich, 
 J. Bloino, B. G. Janesko, R. Gomperts, B. Mennucci, H. P. Hratchian, 
 J. V. Ortiz, A. F. Izmaylov, J. L. Sonnenberg, D. Williams-Young, 
 F. Ding, F. Lipparini, F. Egidi, J. Goings, B. Peng, A. Petrone, 
 T. Henderson, D. Ranasinghe, V. G. Zakrzewski, J. Gao, N. Rega, 
 G. Zheng, W. Liang, M. Hada, M. Ehara, K. Toyota, R. Fukuda, 
 J. Hasegawa, M. Ishida, T. Nakajima, Y. Honda, O. Kitao, H. Nakai, 
 T. Vreven, K. Throssell, J. A. Montgomery, Jr., J. E. Peralta, 
 F. Ogliaro, M. J. Bearpark, J. J. Heyd, E. N. Brothers, K. N. Kudin, 
 V. N. Staroverov, T. A. Keith, R. Kobayashi, J. Normand, 
 K. Raghavachari, A. P. Rendell, J. C. Burant, S. S. Iyengar, 
 J. Tomasi, M. Cossi, J. M. Millam, M. Klene, C. Adamo, R. Cammi, 
 J. W. Ochterski, R. L. Martin, K. Morokuma, O. Farkas, 
 J. B. Foresman, and D. J. Fox, Gaussian, Inc., Wallingford CT, 2019.
 
 ******************************************
 Gaussian 16:  ES64L-G16RevC.01  3-Jul-2019
                 5-Sep-2022 
 ******************************************
 %mem=20GB
 %nprocshared=8
 Will use up to    8 processors via shared memory.
 %rwf=/scratch/
 %nosave
 ----------------------------------------------------------------------
 #p opt=modredundant wb97xd/6-31+g(d,p) scrf=(smd,solvent=dichlorometha
 ne)
 ----------------------------------------------------------------------
 1/18=120,19=15,26=3,38=1/1,3;
 2/9=110,12=2,17=6,18=5,40=1/2;
 3/5=1,6=6,7=111,11=2,25=1,30=1,70=32201,71=1,72=9,74=-58/1,2,3;
 4//1;
 5/5=2,38=5,53=9/2;
 6/7=2,8=2,9=2,10=2,28=1/1;
 7//1,2,3,16;
 1/18=20,19=15,26=3/3(2);
 2/9=110/2;
 99//99;
 2/9=110/2;
 3/5=1,6=6,7=111,11=2,25=1,30=1,70=32205,71=1,72=9,74=-58/1,2,3;
 4/5=5,16=3,69=1/1;
 5/5=2,38=5,53=9/2;
 7//1,2,3,16;
 1/18=20,19=15,26=3/3(-5);
 2/9=110/2;
 6/7=2,8=2,9=2,10=2,19=2,28=1/1;
 99/9=1/99;
 Leave Link    1 at Mon Sep  5 05:29:46 2022, MaxMem=  2684354560 cpu:               0.4 elap:               0.1
 (Enter /afs/cad/linux/gaussian/g16_C.01/AVX2/g16/l101.exe)
 -------------------
 1u_class_min_conf-9
 -------------------
 Symbolic Z-matrix:
 Charge =  0 Multiplicity = 1
 C                     1.29906  -0.26664  -0.57945 
 C                    -1.04219  -1.19024  -0.37469 
 C                     0.4122   -1.35508   0.01409 
 H                    -1.28423  -1.48599  -1.39354 
 H                     0.76201  -2.24858  -0.52582 
 C                    -2.00529  -0.70342   0.41239 
 H                    -1.75792  -0.37029   1.41854 
 C                    -3.4203   -0.52178   0.03338 
 C                    -4.20835   0.36208   0.78407 
 C                    -4.01636  -1.19455  -1.0443 
 C                    -5.54355   0.58792   0.45695 
 H                    -3.76299   0.88507   1.62653 
 C                    -5.35067  -0.9709   -1.37077 
 H                    -3.44145  -1.90998  -1.62505 
 C                    -6.11976  -0.07661  -0.62427 
 H                    -6.13316   1.28242   1.04809 
 H                    -5.79538  -1.50329  -2.20654 
 H                    -7.16128   0.09378  -0.8799 
 C                     0.86299   0.33406  -1.87865 
 H                     1.50819   1.1602   -2.17808 
 H                     0.97031  -0.4616   -2.62641 
 H                    -0.17905   0.6511   -1.85986 
 F                     1.002     0.99307   0.54313 
 B                     0.44951   2.46125   0.45325 
 F                     0.48277   2.86679   1.76455 
 F                    -0.81595   2.37006  -0.06615 
 F                     1.32803   3.14055  -0.35872 
 C                     2.82439  -0.42518  -0.43869 
 C                     3.52203   0.86947  -0.73522 
 H                     3.15845  -1.22479  -1.14371 
 H                     3.04522  -0.76383   0.60272 
 H                     4.62849   0.75492  -0.63318 
 H                     3.3009    1.20784  -1.7767 
 H                     3.18759   1.66895  -0.0302 
 C                     0.65415  -1.60152   1.51486 
 O                     0.33769  -0.92175   2.49021 
 O                     1.3231   -2.7595    1.74511 
 C                     1.52797  -2.95218   3.14718 
 H                     2.06225  -3.86529   3.3074 
 H                     2.09411  -2.13392   3.54068 
 H                     0.58084  -3.00149   3.64257 
 
 Add virtual bond connecting atoms F23        and C1         Dist= 3.24D+00.
 The following ModRedundant input section has been read:
 B       1      23 F                                                           
 
 ITRead=  0  0  0  0  0  0  0  0  0  0  0  0  0  0  0  0  0  0  0  0
 ITRead=  0  0  0  0  0  0  0  0  0  0  0  0  0  0  0  0  0  0  0  0
 ITRead=  0
 MicOpt= -1 -1 -1 -1 -1 -1 -1 -1 -1 -1 -1 -1 -1 -1 -1 -1 -1 -1 -1 -1
 MicOpt= -1 -1 -1 -1 -1 -1 -1 -1 -1 -1 -1 -1 -1 -1 -1 -1 -1 -1 -1 -1
 MicOpt= -1
 NAtoms=     41 NQM=       41 NQMF=       0 NMMI=      0 NMMIF=      0
                NMic=       0 NMicF=      0.
                    Isotopes and Nuclear Properties:
 (Nuclear quadrupole moments (NQMom) in fm**2, nuclear magnetic moments (NMagM)
  in nuclear magnetons)

  Atom         1           2           3           4           5           6           7           8           9          10
 IAtWgt=          12          12          12           1           1          12           1          12          12          12
 AtmWgt=  12.0000000  12.0000000  12.0000000   1.0078250   1.0078250  12.0000000   1.0078250  12.0000000  12.0000000  12.0000000
 NucSpn=           0           0           0           1           1           0           1           0           0           0
 AtZEff=  -0.0000000  -0.0000000  -0.0000000  -0.0000000  -0.0000000  -0.0000000  -0.0000000  -0.0000000  -0.0000000  -0.0000000
 NQMom=    0.0000000   0.0000000   0.0000000   0.0000000   0.0000000   0.0000000   0.0000000   0.0000000   0.0000000   0.0000000
 NMagM=    0.0000000   0.0000000   0.0000000   2.7928460   2.7928460   0.0000000   2.7928460   0.0000000   0.0000000   0.0000000
 AtZNuc=   6.0000000   6.0000000   6.0000000   1.0000000   1.0000000   6.0000000   1.0000000   6.0000000   6.0000000   6.0000000

  Atom        11          12          13          14          15          16          17          18          19          20
 IAtWgt=          12           1          12           1          12           1           1           1          12           1
 AtmWgt=  12.0000000   1.0078250  12.0000000   1.0078250  12.0000000   1.0078250   1.0078250   1.0078250  12.0000000   1.0078250
 NucSpn=           0           1           0           1           0           1           1           1           0           1
 AtZEff=  -0.0000000  -0.0000000  -0.0000000  -0.0000000  -0.0000000  -0.0000000  -0.0000000  -0.0000000  -0.0000000  -0.0000000
 NQMom=    0.0000000   0.0000000   0.0000000   0.0000000   0.0000000   0.0000000   0.0000000   0.0000000   0.0000000   0.0000000
 NMagM=    0.0000000   2.7928460   0.0000000   2.7928460   0.0000000   2.7928460   2.7928460   2.7928460   0.0000000   2.7928460
 AtZNuc=   6.0000000   1.0000000   6.0000000   1.0000000   6.0000000   1.0000000   1.0000000   1.0000000   6.0000000   1.0000000

  Atom        21          22          23          24          25          26          27          28          29          30
 IAtWgt=           1           1          19          11          19          19          19          12          12           1
 AtmWgt=   1.0078250   1.0078250  18.9984032  11.0093053  18.9984032  18.9984032  18.9984032  12.0000000  12.0000000   1.0078250
 NucSpn=           1           1           1           3           1           1           1           0           0           1
 AtZEff=  -0.0000000  -0.0000000  -0.0000000  -0.0000000  -0.0000000  -0.0000000  -0.0000000  -0.0000000  -0.0000000  -0.0000000
 NQMom=    0.0000000   0.0000000   0.0000000   4.0590000   0.0000000   0.0000000   0.0000000   0.0000000   0.0000000   0.0000000
 NMagM=    2.7928460   2.7928460   2.6288670   2.6886370   2.6288670   2.6288670   2.6288670   0.0000000   0.0000000   2.7928460
 AtZNuc=   1.0000000   1.0000000   9.0000000   5.0000000   9.0000000   9.0000000   9.0000000   6.0000000   6.0000000   1.0000000

  Atom        31          32          33          34          35          36          37          38          39          40
 IAtWgt=           1           1           1           1          12          16          16          12           1           1
 AtmWgt=   1.0078250   1.0078250   1.0078250   1.0078250  12.0000000  15.9949146  15.9949146  12.0000000   1.0078250   1.0078250
 NucSpn=           1           1           1           1           0           0           0           0           1           1
 AtZEff=  -0.0000000  -0.0000000  -0.0000000  -0.0000000  -0.0000000  -0.0000000  -0.0000000  -0.0000000  -0.0000000  -0.0000000
 NQMom=    0.0000000   0.0000000   0.0000000   0.0000000   0.0000000   0.0000000   0.0000000   0.0000000   0.0000000   0.0000000
 NMagM=    2.7928460   2.7928460   2.7928460   2.7928460   0.0000000   0.0000000   0.0000000   0.0000000   2.7928460   2.7928460
 AtZNuc=   1.0000000   1.0000000   1.0000000   1.0000000   6.0000000   8.0000000   8.0000000   6.0000000   1.0000000   1.0000000

  Atom        41
 IAtWgt=           1
 AtmWgt=   1.0078250
 NucSpn=           1
 AtZEff=  -0.0000000
 NQMom=    0.0000000
 NMagM=    2.7928460
 AtZNuc=   1.0000000
 Leave Link  101 at Mon Sep  5 05:29:47 2022, MaxMem=  2684354560 cpu:               4.7 elap:               0.6
 (Enter /afs/cad/linux/gaussian/g16_C.01/AVX2/g16/l103.exe)

 GradGradGradGradGradGradGradGradGradGradGradGradGradGradGradGradGradGrad
 Berny optimization.
 Initialization pass.
                           ----------------------------
                           !    Initial Parameters    !
                           ! (Angstroms and Degrees)  !
 --------------------------                            --------------------------
 ! Name  Definition              Value          Derivative Info.                !
 --------------------------------------------------------------------------------
 ! R1    R(1,3)                  1.5243         estimate D2E/DX2                !
 ! R2    R(1,19)                 1.4963         estimate D2E/DX2                !
 ! R3    R(1,23)                 1.7133         Frozen                          !
 ! R4    R(1,28)                 1.54           estimate D2E/DX2                !
 ! R5    R(2,3)                  1.5145         estimate D2E/DX2                !
 ! R6    R(2,4)                  1.0882         estimate D2E/DX2                !
 ! R7    R(2,6)                  1.3357         estimate D2E/DX2                !
 ! R8    R(3,5)                  1.101          estimate D2E/DX2                !
 ! R9    R(3,35)                 1.54           estimate D2E/DX2                !
 ! R10   R(6,7)                  1.0884         estimate D2E/DX2                !
 ! R11   R(6,8)                  1.4761         estimate D2E/DX2                !
 ! R12   R(8,9)                  1.4021         estimate D2E/DX2                !
 ! R13   R(8,10)                 1.4033         estimate D2E/DX2                !
 ! R14   R(9,11)                 1.3931         estimate D2E/DX2                !
 ! R15   R(9,12)                 1.087          estimate D2E/DX2                !
 ! R16   R(10,13)                1.3918         estimate D2E/DX2                !
 ! R17   R(10,14)                1.0861         estimate D2E/DX2                !
 ! R18   R(11,15)                1.3938         estimate D2E/DX2                !
 ! R19   R(11,16)                1.086          estimate D2E/DX2                !
 ! R20   R(13,15)                1.3959         estimate D2E/DX2                !
 ! R21   R(13,17)                1.0861         estimate D2E/DX2                !
 ! R22   R(15,18)                1.0859         estimate D2E/DX2                !
 ! R23   R(19,20)                1.0902         estimate D2E/DX2                !
 ! R24   R(19,21)                1.0971         estimate D2E/DX2                !
 ! R25   R(19,22)                1.0894         estimate D2E/DX2                !
 ! R26   R(23,24)                1.5713         estimate D2E/DX2                !
 ! R27   R(24,25)                1.373          estimate D2E/DX2                !
 ! R28   R(24,26)                1.3709         estimate D2E/DX2                !
 ! R29   R(24,27)                1.3757         estimate D2E/DX2                !
 ! R30   R(28,29)                1.5002         estimate D2E/DX2                !
 ! R31   R(28,30)                1.1171         estimate D2E/DX2                !
 ! R32   R(28,31)                1.1171         estimate D2E/DX2                !
 ! R33   R(29,32)                1.117          estimate D2E/DX2                !
 ! R34   R(29,33)                1.1172         estimate D2E/DX2                !
 ! R35   R(29,34)                1.1172         estimate D2E/DX2                !
 ! R36   R(35,36)                1.2303         estimate D2E/DX2                !
 ! R37   R(35,37)                1.357          estimate D2E/DX2                !
 ! R38   R(37,38)                1.43           estimate D2E/DX2                !
 ! R39   R(38,39)                1.07           estimate D2E/DX2                !
 ! R40   R(38,40)                1.07           estimate D2E/DX2                !
 ! R41   R(38,41)                1.07           estimate D2E/DX2                !
 ! A1    A(3,1,19)             117.0776         estimate D2E/DX2                !
 ! A2    A(3,1,23)              99.73           estimate D2E/DX2                !
 ! A3    A(3,1,28)             117.8509         estimate D2E/DX2                !
 ! A4    A(19,1,23)            102.8979         estimate D2E/DX2                !
 ! A5    A(19,1,28)            114.1637         estimate D2E/DX2                !
 ! A6    A(23,1,28)            100.8091         estimate D2E/DX2                !
 ! A7    A(3,2,4)              115.1119         estimate D2E/DX2                !
 ! A8    A(3,2,6)              125.5102         estimate D2E/DX2                !
 ! A9    A(4,2,6)              119.3677         estimate D2E/DX2                !
 ! A10   A(1,3,2)              112.3992         estimate D2E/DX2                !
 ! A11   A(1,3,5)              101.7521         estimate D2E/DX2                !
 ! A12   A(1,3,35)             113.7236         estimate D2E/DX2                !
 ! A13   A(2,3,5)              105.5194         estimate D2E/DX2                !
 ! A14   A(2,3,35)             114.7384         estimate D2E/DX2                !
 ! A15   A(5,3,35)             107.3433         estimate D2E/DX2                !
 ! A16   A(2,6,7)              119.5014         estimate D2E/DX2                !
 ! A17   A(2,6,8)              125.7854         estimate D2E/DX2                !
 ! A18   A(7,6,8)              114.6822         estimate D2E/DX2                !
 ! A19   A(6,8,9)              118.6138         estimate D2E/DX2                !
 ! A20   A(6,8,10)             123.0493         estimate D2E/DX2                !
 ! A21   A(9,8,10)             118.3369         estimate D2E/DX2                !
 ! A22   A(8,9,11)             121.0093         estimate D2E/DX2                !
 ! A23   A(8,9,12)             119.2078         estimate D2E/DX2                !
 ! A24   A(11,9,12)            119.7793         estimate D2E/DX2                !
 ! A25   A(8,10,13)            120.6853         estimate D2E/DX2                !
 ! A26   A(8,10,14)            120.1051         estimate D2E/DX2                !
 ! A27   A(13,10,14)           119.2031         estimate D2E/DX2                !
 ! A28   A(9,11,15)            120.072          estimate D2E/DX2                !
 ! A29   A(9,11,16)            119.7494         estimate D2E/DX2                !
 ! A30   A(15,11,16)           120.1786         estimate D2E/DX2                !
 ! A31   A(10,13,15)           120.3796         estimate D2E/DX2                !
 ! A32   A(10,13,17)           119.6214         estimate D2E/DX2                !
 ! A33   A(15,13,17)           119.9969         estimate D2E/DX2                !
 ! A34   A(11,15,13)           119.507          estimate D2E/DX2                !
 ! A35   A(11,15,18)           120.2871         estimate D2E/DX2                !
 ! A36   A(13,15,18)           120.2042         estimate D2E/DX2                !
 ! A37   A(1,19,20)            111.7304         estimate D2E/DX2                !
 ! A38   A(1,19,21)            105.791          estimate D2E/DX2                !
 ! A39   A(1,19,22)            112.3723         estimate D2E/DX2                !
 ! A40   A(20,19,21)           107.7271         estimate D2E/DX2                !
 ! A41   A(20,19,22)           110.5063         estimate D2E/DX2                !
 ! A42   A(21,19,22)           108.4445         estimate D2E/DX2                !
 ! A43   A(1,23,24)            135.2765         estimate D2E/DX2                !
 ! A44   A(23,24,25)           102.2891         estimate D2E/DX2                !
 ! A45   A(23,24,26)           106.5044         estimate D2E/DX2                !
 ! A46   A(23,24,27)           105.7004         estimate D2E/DX2                !
 ! A47   A(25,24,26)           113.8193         estimate D2E/DX2                !
 ! A48   A(25,24,27)           113.7279         estimate D2E/DX2                !
 ! A49   A(26,24,27)           113.4961         estimate D2E/DX2                !
 ! A50   A(1,28,29)            110.7128         estimate D2E/DX2                !
 ! A51   A(1,28,30)            108.191          estimate D2E/DX2                !
 ! A52   A(1,28,31)            108.1922         estimate D2E/DX2                !
 ! A53   A(29,28,30)           110.7248         estimate D2E/DX2                !
 ! A54   A(29,28,31)           110.7282         estimate D2E/DX2                !
 ! A55   A(30,28,31)           108.193          estimate D2E/DX2                !
 ! A56   A(28,29,32)           110.7359         estimate D2E/DX2                !
 ! A57   A(28,29,33)           110.7071         estimate D2E/DX2                !
 ! A58   A(28,29,34)           110.7081         estimate D2E/DX2                !
 ! A59   A(32,29,33)           108.1971         estimate D2E/DX2                !
 ! A60   A(32,29,34)           108.1957         estimate D2E/DX2                !
 ! A61   A(33,29,34)           108.1987         estimate D2E/DX2                !
 ! A62   A(3,35,36)            130.0733         estimate D2E/DX2                !
 ! A63   A(3,35,37)            112.2947         estimate D2E/DX2                !
 ! A64   A(36,35,37)           117.632          estimate D2E/DX2                !
 ! A65   A(35,37,38)           110.6079         estimate D2E/DX2                !
 ! A66   A(37,38,39)           109.4712         estimate D2E/DX2                !
 ! A67   A(37,38,40)           109.4712         estimate D2E/DX2                !
 ! A68   A(37,38,41)           109.4712         estimate D2E/DX2                !
 ! A69   A(39,38,40)           109.4713         estimate D2E/DX2                !
 ! A70   A(39,38,41)           109.4712         estimate D2E/DX2                !
 ! A71   A(40,38,41)           109.4712         estimate D2E/DX2                !
 ! D1    D(19,1,3,2)           -29.0111         estimate D2E/DX2                !
 ! D2    D(19,1,3,5)            83.4056         estimate D2E/DX2                !
 ! D3    D(19,1,3,35)         -161.5064         estimate D2E/DX2                !
 ! D4    D(23,1,3,2)            80.9886         estimate D2E/DX2                !
 ! D5    D(23,1,3,5)          -166.5947         estimate D2E/DX2                !
 ! D6    D(23,1,3,35)          -51.5068         estimate D2E/DX2                !
 ! D7    D(28,1,3,2)          -171.2049         estimate D2E/DX2                !
 ! D8    D(28,1,3,5)           -58.7882         estimate D2E/DX2                !
 ! D9    D(28,1,3,35)           56.2997         estimate D2E/DX2                !
 ! D10   D(3,1,19,20)          174.93           estimate D2E/DX2                !
 ! D11   D(3,1,19,21)          -68.1113         estimate D2E/DX2                !
 ! D12   D(3,1,19,22)           50.0503         estimate D2E/DX2                !
 ! D13   D(23,1,19,20)          66.7627         estimate D2E/DX2                !
 ! D14   D(23,1,19,21)        -176.2786         estimate D2E/DX2                !
 ! D15   D(23,1,19,22)         -58.117          estimate D2E/DX2                !
 ! D16   D(28,1,19,20)         -41.514          estimate D2E/DX2                !
 ! D17   D(28,1,19,21)          75.4447         estimate D2E/DX2                !
 ! D18   D(28,1,19,22)        -166.3936         estimate D2E/DX2                !
 ! D19   D(3,1,23,24)         -121.7364         estimate D2E/DX2                !
 ! D20   D(19,1,23,24)          -0.8685         estimate D2E/DX2                !
 ! D21   D(28,1,23,24)         117.2467         estimate D2E/DX2                !
 ! D22   D(3,1,28,29)         -164.9048         estimate D2E/DX2                !
 ! D23   D(3,1,28,30)           73.5956         estimate D2E/DX2                !
 ! D24   D(3,1,28,31)          -43.4003         estimate D2E/DX2                !
 ! D25   D(19,1,28,29)          51.8376         estimate D2E/DX2                !
 ! D26   D(19,1,28,30)         -69.662          estimate D2E/DX2                !
 ! D27   D(19,1,28,31)         173.3421         estimate D2E/DX2                !
 ! D28   D(23,1,28,29)         -57.7185         estimate D2E/DX2                !
 ! D29   D(23,1,28,30)        -179.2181         estimate D2E/DX2                !
 ! D30   D(23,1,28,31)          63.786          estimate D2E/DX2                !
 ! D31   D(4,2,3,1)             75.9797         estimate D2E/DX2                !
 ! D32   D(4,2,3,5)            -34.0853         estimate D2E/DX2                !
 ! D33   D(4,2,3,35)          -152.0278         estimate D2E/DX2                !
 ! D34   D(6,2,3,1)           -102.8503         estimate D2E/DX2                !
 ! D35   D(6,2,3,5)            147.0847         estimate D2E/DX2                !
 ! D36   D(6,2,3,35)            29.1421         estimate D2E/DX2                !
 ! D37   D(3,2,6,7)              1.1881         estimate D2E/DX2                !
 ! D38   D(3,2,6,8)            179.049          estimate D2E/DX2                !
 ! D39   D(4,2,6,7)           -177.5963         estimate D2E/DX2                !
 ! D40   D(4,2,6,8)              0.2646         estimate D2E/DX2                !
 ! D41   D(1,3,35,36)           73.8223         estimate D2E/DX2                !
 ! D42   D(1,3,35,37)         -106.1745         estimate D2E/DX2                !
 ! D43   D(2,3,35,36)          -57.5367         estimate D2E/DX2                !
 ! D44   D(2,3,35,37)          122.4664         estimate D2E/DX2                !
 ! D45   D(5,3,35,36)         -174.4426         estimate D2E/DX2                !
 ! D46   D(5,3,35,37)            5.5606         estimate D2E/DX2                !
 ! D47   D(2,6,8,9)           -160.3139         estimate D2E/DX2                !
 ! D48   D(2,6,8,10)            19.766          estimate D2E/DX2                !
 ! D49   D(7,6,8,9)             17.6372         estimate D2E/DX2                !
 ! D50   D(7,6,8,10)          -162.2829         estimate D2E/DX2                !
 ! D51   D(6,8,9,11)           178.9354         estimate D2E/DX2                !
 ! D52   D(6,8,9,12)            -0.3779         estimate D2E/DX2                !
 ! D53   D(10,8,9,11)           -1.1406         estimate D2E/DX2                !
 ! D54   D(10,8,9,12)          179.5461         estimate D2E/DX2                !
 ! D55   D(6,8,10,13)         -179.0285         estimate D2E/DX2                !
 ! D56   D(6,8,10,14)            1.9136         estimate D2E/DX2                !
 ! D57   D(9,8,10,13)            1.0511         estimate D2E/DX2                !
 ! D58   D(9,8,10,14)         -178.0067         estimate D2E/DX2                !
 ! D59   D(8,9,11,15)            0.5142         estimate D2E/DX2                !
 ! D60   D(8,9,11,16)         -179.5534         estimate D2E/DX2                !
 ! D61   D(12,9,11,15)         179.8236         estimate D2E/DX2                !
 ! D62   D(12,9,11,16)          -0.2439         estimate D2E/DX2                !
 ! D63   D(8,10,13,15)          -0.3396         estimate D2E/DX2                !
 ! D64   D(8,10,13,17)        -179.8145         estimate D2E/DX2                !
 ! D65   D(14,10,13,15)        178.7267         estimate D2E/DX2                !
 ! D66   D(14,10,13,17)         -0.7483         estimate D2E/DX2                !
 ! D67   D(9,11,15,13)           0.2245         estimate D2E/DX2                !
 ! D68   D(9,11,15,18)         179.7529         estimate D2E/DX2                !
 ! D69   D(16,11,15,13)       -179.7076         estimate D2E/DX2                !
 ! D70   D(16,11,15,18)         -0.1792         estimate D2E/DX2                !
 ! D71   D(10,13,15,11)         -0.3105         estimate D2E/DX2                !
 ! D72   D(10,13,15,18)       -179.8394         estimate D2E/DX2                !
 ! D73   D(17,13,15,11)        179.1624         estimate D2E/DX2                !
 ! D74   D(17,13,15,18)         -0.3664         estimate D2E/DX2                !
 ! D75   D(1,23,24,25)         179.5535         estimate D2E/DX2                !
 ! D76   D(1,23,24,26)          59.8421         estimate D2E/DX2                !
 ! D77   D(1,23,24,27)         -61.1701         estimate D2E/DX2                !
 ! D78   D(1,28,29,32)         179.9967         estimate D2E/DX2                !
 ! D79   D(1,28,29,33)         -59.9975         estimate D2E/DX2                !
 ! D80   D(1,28,29,34)          59.992          estimate D2E/DX2                !
 ! D81   D(30,28,29,32)        -60.0087         estimate D2E/DX2                !
 ! D82   D(30,28,29,33)         59.997          estimate D2E/DX2                !
 ! D83   D(30,28,29,34)        179.9866         estimate D2E/DX2                !
 ! D84   D(31,28,29,32)         59.9984         estimate D2E/DX2                !
 ! D85   D(31,28,29,33)       -179.9958         estimate D2E/DX2                !
 ! D86   D(31,28,29,34)        -60.0063         estimate D2E/DX2                !
 ! D87   D(3,35,37,38)         179.9996         estimate D2E/DX2                !
 ! D88   D(36,35,37,38)          0.0023         estimate D2E/DX2                !
 ! D89   D(35,37,38,39)       -179.5923         estimate D2E/DX2                !
 ! D90   D(35,37,38,40)        -59.5923         estimate D2E/DX2                !
 ! D91   D(35,37,38,41)         60.4077         estimate D2E/DX2                !
 --------------------------------------------------------------------------------
 Trust Radius=3.00D-01 FncErr=1.00D-07 GrdErr=1.00D-06 EigMax=2.50D+02 EigMin=1.00D-04
 Number of steps in this run=    213 maximum allowed number of steps=    246.
 GradGradGradGradGradGradGradGradGradGradGradGradGradGradGradGradGradGrad

 Leave Link  103 at Mon Sep  5 05:29:47 2022, MaxMem=  2684354560 cpu:               0.1 elap:               0.0
 (Enter /afs/cad/linux/gaussian/g16_C.01/AVX2/g16/l202.exe)
                          Input orientation:                          
 ---------------------------------------------------------------------
 Center     Atomic      Atomic             Coordinates (Angstroms)
 Number     Number       Type             X           Y           Z
 ---------------------------------------------------------------------
      1          6           0        1.299055   -0.266640   -0.579454
      2          6           0       -1.042191   -1.190240   -0.374694
      3          6           0        0.412196   -1.355076    0.014086
      4          1           0       -1.284232   -1.485986   -1.393543
      5          1           0        0.762013   -2.248582   -0.525824
      6          6           0       -2.005285   -0.703421    0.412390
      7          1           0       -1.757917   -0.370290    1.418541
      8          6           0       -3.420296   -0.521780    0.033380
      9          6           0       -4.208351    0.362077    0.784069
     10          6           0       -4.016362   -1.194551   -1.044301
     11          6           0       -5.543548    0.587920    0.456951
     12          1           0       -3.762991    0.885073    1.626525
     13          6           0       -5.350674   -0.970902   -1.370768
     14          1           0       -3.441449   -1.909982   -1.625054
     15          6           0       -6.119759   -0.076605   -0.624266
     16          1           0       -6.133165    1.282422    1.048088
     17          1           0       -5.795379   -1.503289   -2.206539
     18          1           0       -7.161283    0.093778   -0.879896
     19          6           0        0.862992    0.334055   -1.878652
     20          1           0        1.508187    1.160199   -2.178084
     21          1           0        0.970309   -0.461599   -2.626409
     22          1           0       -0.179052    0.651101   -1.859855
     23          9           0        1.002000    0.993072    0.543134
     24          5           0        0.449511    2.461249    0.453254
     25          9           0        0.482770    2.866788    1.764548
     26          9           0       -0.815946    2.370063   -0.066152
     27          9           0        1.328029    3.140549   -0.358724
     28          6           0        2.824392   -0.425178   -0.438694
     29          6           0        3.522033    0.869472   -0.735223
     30          1           0        3.158452   -1.224787   -1.143709
     31          1           0        3.045220   -0.763834    0.602723
     32          1           0        4.628486    0.754925   -0.633176
     33          1           0        3.300901    1.207844   -1.776704
     34          1           0        3.187586    1.668948   -0.030200
     35          6           0        0.654152   -1.601523    1.514860
     36          8           0        0.337692   -0.921746    2.490215
     37          8           0        1.323099   -2.759496    1.745113
     38          6           0        1.527969   -2.952175    3.147184
     39          1           0        2.062253   -3.865286    3.307402
     40          1           0        2.094110   -2.133918    3.540680
     41          1           0        0.580837   -3.001495    3.642572
 ---------------------------------------------------------------------
                    Distance matrix (angstroms):
                    1          2          3          4          5
     1  C    0.000000
     2  C    2.525153   0.000000
     3  C    1.524304   1.514451   0.000000
     4  H    2.970340   1.088165   2.208263   0.000000
     5  H    2.054114   2.097160   1.101012   2.349810   0.000000
     6  C    3.477527   1.335681   2.535254   2.096120   3.305406
     7  H    3.653465   2.097683   2.766168   3.062184   3.695752
     8  C    4.765809   2.503747   3.922085   2.743824   4.559195
     9  C    5.708415   3.711737   4.989082   4.087518   5.765057
    10  C    5.415788   3.048620   4.556103   2.769736   4.920637
    11  C    6.973208   4.910774   6.280306   5.085979   6.983673
    12  H    5.640664   3.964159   5.005039   4.570227   5.909997
    13  C    6.733577   4.427561   5.939367   4.098998   6.301693
    14  H    5.125059   2.799619   4.224367   2.210646   4.357987
    15  C    7.421383   5.204245   6.686435   5.095141   7.217060
    16  H    7.764430   5.835785   7.132132   6.094079   7.904977
    17  H    7.382933   5.103572   6.594477   4.583853   6.810261
    18  H    8.473340   6.272736   7.762472   6.107308   8.269863
    19  C    1.496296   2.866197   2.576594   2.856300   2.917251
    20  H    2.152957   3.909118   3.511896   3.926245   3.860897
    21  H    2.082332   3.106653   2.842887   2.766276   2.765710
    22  H    2.160203   2.518184   2.808198   2.450716   3.327672
    23  F    1.713278   3.128574   2.478217   3.888869   3.421781
    24  B    3.038024   4.030390   3.841692   4.690116   4.820660
    25  F    3.997379   4.833357   4.570912   5.660607   5.611666
    26  F    3.418905   3.580802   3.923191   4.104921   4.902360
    27  F    3.414454   4.936996   4.603084   5.412909   5.421349
    28  C    1.540000   3.942065   2.624578   4.349464   2.754233
    29  C    2.501328   5.020412   3.896301   5.392750   4.169391
    30  H    2.166514   4.270594   2.983184   4.457363   2.678219
    31  H    2.166526   4.224228   2.762042   4.821902   2.948073
    32  H    3.483044   6.000588   4.759008   6.368679   4.897162
    33  H    2.759510   5.155472   4.256772   5.331696   4.467386
    34  H    2.759480   5.117094   4.104811   5.639989   4.634230
    35  C    2.565923   2.572381   1.540000   3.497068   2.143527
    36  O    3.282720   3.191217   2.514864   4.246479   3.322203
    37  O    3.408596   3.542703   2.408027   4.274479   2.394370
    38  C    4.599167   4.702527   3.689442   5.538627   3.817423
    39  H    5.351670   5.509199   4.457552   6.241708   4.358667
    40  H    4.592858   5.104612   3.984005   6.014945   4.280664
    41  H    5.081415   4.696093   3.988113   5.580117   4.239721
                    6          7          8          9         10
     6  C    0.000000
     7  H    1.088351   0.000000
     8  C    1.476109   2.169130   0.000000
     9  C    2.475264   2.635060   1.402058   0.000000
    10  C    2.531321   3.441739   1.403322   2.408918   0.000000
    11  C    3.766809   4.021669   2.432909   1.393112   2.786262
    12  H    2.662136   2.374766   2.152855   1.087015   3.394458
    13  C    3.800372   4.587906   2.428930   2.779399   1.391757
    14  H    2.769392   3.803735   2.162858   3.399156   1.086113
    15  C    4.289108   4.825451   2.813855   2.414401   2.418783
    16  H    4.624616   4.691640   3.412394   2.149802   3.872253
    17  H    4.675830   5.543103   3.409049   3.865486   2.147328
    18  H    5.374927   5.890207   3.899740   3.400084   3.402550
    19  C    3.814740   4.270451   4.768110   5.727948   5.180818
    20  H    4.746380   5.093677   5.657700   6.487693   6.111543
    21  H    4.259922   4.879874   5.133762   6.255264   5.282724
    22  H    3.214491   3.779409   3.932639   4.827952   4.335494
    23  F    3.455278   3.200349   4.702268   5.253947   5.699965
    24  B    4.005350   3.717813   4.904096   5.119730   5.962513
    25  F    4.556878   3.952097   5.450987   5.407544   6.680292
    26  F    3.330140   3.255942   3.892981   4.032778   4.889367
    27  F    5.146038   5.000772   6.009408   6.298999   6.915607
    28  C    4.911979   4.944683   6.263251   7.181531   6.910471
    29  C    5.860226   5.835544   7.121956   7.894589   7.821964
    30  H    5.418251   5.609454   6.720095   7.778448   7.175566
    31  H    5.054452   4.887798   6.495048   7.342674   7.263894
    32  H    6.872183   6.801603   8.176623   8.958382   8.871465
    33  H    6.049849   6.188032   7.172342   7.978831   7.736294
    34  H    5.726249   5.542142   6.961856   7.554524   7.818241
    35  C    3.015731   2.709850   4.467858   5.294688   5.341220
    36  O    3.139198   2.417471   4.507603   5.022513   5.614714
    37  O    4.133006   3.912495   5.516992   6.423766   6.224125
    38  C    5.001987   4.522321   6.331502   7.033772   7.169198
    39  H    5.909598   5.511487   7.208092   7.972345   7.938495
    40  H    5.351407   4.738351   6.731182   7.317780   7.696904
    41  H    4.733207   4.164052   5.931637   6.513139   6.809263
                   11         12         13         14         15
    11  C    0.000000
    12  H    2.150950   0.000000
    13  C    2.409914   3.866413   0.000000
    14  H    3.872090   4.299824   2.142819   0.000000
    15  C    1.393787   3.397829   1.395895   3.396497   0.000000
    16  H    1.086013   2.471882   3.397150   4.958071   2.154971
    17  H    3.395696   4.952500   1.086145   2.458559   2.155049
    18  H    2.156015   4.296124   2.157036   4.290394   1.085886
    19  C    6.823727   5.830060   6.369498   4.860887   7.106401
    20  H    7.549694   6.506617   7.227539   5.850705   7.882233
    21  H    7.282783   6.504237   6.464584   4.750172   7.377389
    22  H    5.843749   5.005418   5.442038   4.154216   6.111320
    23  F    6.558641   4.887795   6.919298   5.733498   7.295648
    24  B    6.279023   4.648233   6.982039   6.210201   7.124399
    25  F    6.574158   4.687508   7.654224   7.050279   7.613369
    26  F    5.079359   3.708831   5.781680   5.257588   5.867547
    27  F    7.375623   5.911588   7.907802   7.061117   8.117274
    28  C    8.476495   7.026770   8.246107   6.547737   8.952864
    29  C    9.147967   7.658307   9.083822   7.550314   9.688732
    30  H    9.031767   7.748037   8.515940   6.652810   9.363404
    31  H    8.695713   7.079464   8.627200   6.953670   9.272251
    32  H   10.231645   8.691380  10.154120   8.556250  10.780366
    33  H    9.143183   7.847593   8.930928   7.429880   9.577409
    34  H    8.811279   7.188165   9.037025   7.700416   9.488232
    35  C    6.657651   5.070186   6.691970   5.169928   7.265474
    36  O    6.403299   4.563568   6.875108   5.673972   7.218928
    37  O    7.746961   6.258215   7.579382   5.897510   8.258813
    38  C    8.353202   6.710524   8.464813   6.968180   8.998915
    39  H    9.263062   7.702254   9.231155   7.644807   9.836536
    40  H    8.674768   6.861773   8.994428   7.574785   9.436469
    41  H    7.780757   6.167552   8.027435   6.716999   8.465157
                   16         17         18         19         20
    16  H    0.000000
    17  H    4.297311   0.000000
    18  H    2.487373   2.485216   0.000000
    19  C    7.642736   6.915002   8.089761   0.000000
    20  H    8.295383   7.774127   8.830756   1.090161   0.000000
    21  H    8.185529   6.858276   8.335559   1.097143   1.766504
    22  H    6.656287   6.025339   7.072657   1.089370   1.790873
    23  F    7.158860   7.745765   8.335042   2.513697   2.772938
    24  B    6.713798   7.860707   8.081237   3.183348   3.120491
    25  F    6.840623   8.618716   8.550685   4.453337   4.416817
    26  F    5.540515   6.661746   6.790210   3.201456   3.365356
    27  F    7.816724   8.701873   9.034537   3.225345   2.695239
    28  C    9.239277   8.864990  10.008880   2.548922   2.696533
    29  C    9.827185   9.726712  10.712416   2.943569   2.494383
    30  H    9.870370   9.020990  10.406975   2.870412   3.079198
    31  H    9.414259   9.305640  10.349221   3.482054   3.714466
    32  H   10.904955  10.781093  11.810870   3.988394   3.505318
    33  H    9.848178   9.501437  10.559484   2.591776   1.837716
    34  H    9.390874   9.772062  10.502487   3.256141   2.773556
    35  C    7.389363   7.446805   8.348049   3.912288   4.689809
    36  O    6.986421   7.746757   8.283934   4.576022   5.243812
    37  O    8.509925   8.238103   9.328268   4.786798   5.548851
    38  C    9.001721   9.186569  10.049791   6.041567   6.728335
    39  H    9.938223   9.885594  10.875719   6.779959   7.460097
    40  H    9.250537   9.781219  10.496019   6.080765   6.625615
    41  H    8.376223   8.781393   9.485455   6.456735   7.215242
                   21         22         23         24         25
    21  H    0.000000
    22  H    1.773904   0.000000
    23  F    3.487560   2.699293   0.000000
    24  B    4.277686   3.003698   1.571263   0.000000
    25  F    5.531397   4.299253   2.296141   1.372975   0.000000
    26  F    4.214728   2.564729   2.360564   1.370941   2.298883
    27  F    4.271514   3.274452   2.351872   1.375700   2.301672
    28  C    2.867934   3.492671   2.509289   3.842797   4.601577
    29  C    3.443781   3.874340   2.828434   3.658773   4.413076
    30  H    2.751150   3.894965   3.523439   4.845153   5.688428
    31  H    3.850181   4.296773   2.695370   4.142609   4.593191
    32  H    4.339950   4.962655   3.819924   4.642812   5.234120
    33  H    2.990100   3.525188   3.273029   3.830687   4.820210
    34  H    4.024407   3.964581   2.358454   2.891111   3.460053
    35  C    4.306911   4.142130   2.792341   4.204164   4.478562
    36  O    5.176078   4.654458   2.810508   3.950490   3.860133
    37  O    4.951262   5.185020   3.953432   5.448691   5.688726
    38  C    6.312554   6.400622   4.756332   6.142108   6.071611
    39  H    6.927304   7.219539   5.689372   7.125457   7.084912
    40  H    6.487878   6.487632   4.467219   5.775159   5.546000
    41  H    6.775167   6.647977   5.073506   6.326972   6.162251
                   26         27         28         29         30
    26  F    0.000000
    27  F    2.296927   0.000000
    28  C    4.604804   3.867804   0.000000
    29  C    4.638695   3.180125   1.500250   0.000000
    30  H    5.466252   4.798208   1.117146   2.164479   0.000000
    31  H    5.017699   4.372337   1.117140   2.164517   1.809785
    32  H    5.707191   4.081611   2.164537   1.117038   2.518115
    33  H    4.607078   3.104551   2.164276   1.117174   2.517671
    34  H    4.064619   2.394053   2.164288   1.117173   3.100718
    35  C    4.520429   5.143118   3.148031   4.403796   3.671707
    36  O    4.324569   5.059591   3.874115   4.873596   4.610198
    37  O    5.845389   6.263920   3.531563   4.914956   3.750886
    38  C    6.644222   7.032258   4.574380   5.801238   4.904499
    39  H    7.651436   7.941114   5.142805   6.394662   5.290206
    40  H    6.462469   6.603956   4.391870   5.416887   4.889053
    41  H    6.675273   7.368404   5.322376   6.542179   5.719203
                   31         32         33         34         35
    31  H    0.000000
    32  H    2.518095   0.000000
    33  H    3.100735   1.809772   0.000000
    34  H    2.517794   1.809755   1.809899   0.000000
    35  C    2.692754   5.095315   5.072693   4.416047   0.000000
    36  O    3.304281   5.565763   5.614478   4.602834   1.230269
    37  O    2.872878   5.378941   5.661686   5.122418   1.356986
    38  C    3.683094   6.135709   6.685337   5.848494   2.291790
    39  H    4.230901   6.592424   7.288280   6.560008   3.212566
    40  H    3.378363   5.673583   6.395177   5.329978   2.541824
    41  H    4.507882   6.983994   7.381452   6.488254   2.548031
                   36         37         38         39         40
    36  O    0.000000
    37  O    2.214392   0.000000
    38  C    2.443565   1.430000   0.000000
    39  H    3.508038   2.051796   1.070000   0.000000
    40  H    2.378622   2.051796   1.070000   1.747303   0.000000
    41  H    2.390063   2.051796   1.070000   1.747303   1.747303
                   41
    41  H    0.000000
 Stoichiometry    C15H19BF4O2
 Framework group  C1[X(C15H19BF4O2)]
 Deg. of freedom   117
 Full point group                 C1      NOp   1
 Largest Abelian subgroup         C1      NOp   1
 Largest concise Abelian subgroup C1      NOp   1
                         Standard orientation:                         
 ---------------------------------------------------------------------
 Center     Atomic      Atomic             Coordinates (Angstroms)
 Number     Number       Type             X           Y           Z
 ---------------------------------------------------------------------
      1          6           0        1.734190   -0.067882    1.139050
      2          6           0       -0.605969    0.868517    0.986695
      3          6           0        0.875373    1.164093    0.877950
      4          1           0       -0.983004    0.765582    2.002250
      5          1           0        1.114973    1.793225    1.749163
      6          6           0       -1.442918    0.709454   -0.042022
      7          1           0       -1.060378    0.772955   -1.058947
      8          6           0       -2.883245    0.401850    0.056652
      9          6           0       -3.532363   -0.139637   -1.061921
     10          6           0       -3.636153    0.627644    1.219174
     11          6           0       -4.885200   -0.469138   -1.016941
     12          1           0       -2.964358   -0.313402   -1.972294
     13          6           0       -4.988137    0.300421    1.264477
     14          1           0       -3.169921    1.075991    2.091672
     15          6           0       -5.618461   -0.252336    0.148378
     16          1           0       -5.365742   -0.894180   -1.893207
     17          1           0       -5.555126    0.485386    2.172234
     18          1           0       -6.674073   -0.504162    0.186018
     19          6           0        1.173040   -1.107073    2.057795
     20          1           0        1.815445   -1.986102    2.113243
     21          1           0        1.151670   -0.645618    3.052946
     22          1           0        0.156975   -1.393322    1.788725
     23          9           0        1.634544   -0.821060   -0.396565
     24          5           0        1.144891   -2.217218   -0.925574
     25          9           0        1.355413   -2.107540   -2.277873
     26          9           0       -0.176940   -2.323697   -0.577863
     27          9           0        1.949801   -3.150240   -0.313905
     28          6           0        3.256204    0.129776    1.265561
     29          6           0        3.972991   -1.183329    1.152777
     30          1           0        3.464641    0.610492    2.252212
     31          1           0        3.585103    0.830262    0.459864
     32          1           0        5.077049   -1.040394    1.244432
     33          1           0        3.643770   -1.883575    1.958598
     34          1           0        3.764165   -1.663918    0.166116
     35          6           0        1.285072    1.949287   -0.381898
     36          8           0        1.121122    1.680100   -1.571108
     37          8           0        1.921749    3.109291   -0.081162
     38          6           0        2.285275    3.807989   -1.274715
     39          1           0        2.791477    4.714776   -1.017036
     40          1           0        2.932666    3.193369   -1.864654
     41          1           0        1.403691    4.038625   -1.835534
 ---------------------------------------------------------------------
 Rotational constants (GHZ):           0.3530889           0.1825482           0.1507906
 Leave Link  202 at Mon Sep  5 05:29:47 2022, MaxMem=  2684354560 cpu:               0.1 elap:               0.0
 (Enter /afs/cad/linux/gaussian/g16_C.01/AVX2/g16/l301.exe)
 Standard basis: 6-31+G(d,p) (6D, 7F)
 Ernie: Thresh=  0.10000D-02 Tol=  0.10000D-05 Strict=F.
 There are   513 symmetry adapted cartesian basis functions of A   symmetry.
 There are   513 symmetry adapted basis functions of A   symmetry.
   513 basis functions,   837 primitive gaussians,   513 cartesian basis functions
    83 alpha electrons       83 beta electrons
       nuclear repulsion energy      1928.7104928690 Hartrees.
 IExCor= 4639 DFT=T Ex+Corr=wB97XD ExCW=0 ScaHFX=  1.000000
 ScaDFX=  1.000000  1.000000  1.000000  1.000000 ScalE2=  1.000000  1.000000
 IRadAn=      5 IRanWt=     -1 IRanGd=            0 ICorTp=0 IEmpDi=121
 HFx  wShort=  0.000000 wLong=  0.200000 cFull=  0.222036 cShort=  0.000000 cLong=  0.777964
 DFx  wShort=  0.000000 wLong=  0.200000 cFull=  0.000000 cShort=  0.000000 cLong=  1.000000
 NAtoms=   41 NActive=   41 NUniq=   41 SFac= 1.00D+00 NAtFMM=   60 NAOKFM=F Big=F
 Integral buffers will be    131072 words long.
 Raffenetti 2 integral format.
 Two-electron integral symmetry is turned on.
 R6Disp:  Grimme-D2 Dispersion energy=       -0.0340554814 Hartrees.
 Nuclear repulsion after empirical dispersion term =     1928.6764373876 Hartrees.
 ------------------------------------------------------------------------------
 Polarizable Continuum Model (PCM)
 =================================
 Model                : PCM.
 Atomic radii         : SMD-Coulomb.
 Polarization charges : Total charges.
 Charge compensation  : None.
 Solution method      : On-the-fly selection.
 Cavity type          : VdW (van der Waals Surface) (Alpha=1.000).
 Cavity algorithm     : GePol (No added spheres)
                        Default sphere list used, NSphG=   41.
                        Lebedev-Laikov grids with approx.  5.0 points / Ang**2.
                        Smoothing algorithm: York/Karplus (Gamma=1.0000).
                        Polarization charges: spherical gaussians, with
                                              point-specific exponents (IZeta= 3).
                        Self-potential: point-specific (ISelfS= 7).
                        Self-field    : sphere-specific E.n sum rule (ISelfD= 2).
 1st derivatives      : Analytical E(r).r(x)/FMM algorithm (CHGder, D1EAlg=3).
                        Cavity 1st derivative terms included.
 Solvent              : Dichloromethane, Eps=   8.930000 Eps(inf)=   2.028346
 ------------------------------------------------------------------------------
 GePol: Number of generator spheres                  =      41
 GePol: Total number of spheres                      =      41
 GePol: Number of exposed spheres                    =      41 (100.00%)
 GePol: Number of points                             =    2915
 GePol: Average weight of points                     =       0.12
 GePol: Minimum weight of points                     =   0.11D-09
 GePol: Maximum weight of points                     =    0.21501
 GePol: Number of points with low weight             =     198
 GePol: Fraction of low-weight points (<1% of avg)   =       6.79%
 GePol: Cavity surface area                          =    347.116 Ang**2
 GePol: Cavity volume                                =    336.307 Ang**3
 ------------------------------------------------------------------------------
 Atomic radii for non-electrostatic terms: SMD-CDS.
 ------------------------------------------------------------------------------
 PCM non-electrostatic energy =        -0.0059853971 Hartrees.
 Nuclear repulsion after PCM non-electrostatic terms =     1928.6704519905 Hartrees.
 Leave Link  301 at Mon Sep  5 05:29:47 2022, MaxMem=  2684354560 cpu:               0.8 elap:               0.1
 (Enter /afs/cad/linux/gaussian/g16_C.01/AVX2/g16/l302.exe)
 NPDir=0 NMtPBC=     1 NCelOv=     1 NCel=       1 NClECP=     1 NCelD=      1
         NCelK=      1 NCelE2=     1 NClLst=     1 CellRange=     0.0.
 One-electron integrals computed using PRISM.
 One-electron integral symmetry used in STVInt
 NBasis=   513 RedAO= T EigKep=  1.99D-06  NBF=   513
 NBsUse=   511 1.00D-06 EigRej=  6.86D-07 NBFU=   511
 Precomputing XC quadrature grid using
 IXCGrd= 4 IRadAn=           5 IRanWt=          -1 IRanGd=           0 AccXCQ= 0.00D+00.
 Generated NRdTot=       0 NPtTot=           0 NUsed=           0 NTot=          32
 NSgBfM=   510   510   510   510   510 MxSgAt=    41 MxSgA2=    41.
 Leave Link  302 at Mon Sep  5 05:29:48 2022, MaxMem=  2684354560 cpu:               4.2 elap:               0.5
 (Enter /afs/cad/linux/gaussian/g16_C.01/AVX2/g16/l303.exe)
 DipDrv:  MaxL=1.
 Leave Link  303 at Mon Sep  5 05:29:48 2022, MaxMem=  2684354560 cpu:               0.3 elap:               0.1
 (Enter /afs/cad/linux/gaussian/g16_C.01/AVX2/g16/l401.exe)
 ExpMin= 3.15D-02 ExpMax= 7.00D+03 ExpMxC= 1.05D+03 IAcc=3 IRadAn=         5 AccDes= 0.00D+00
 Harris functional with IExCor= 4639 and IRadAn=       5 diagonalized for initial guess.
 HarFok:  IExCor= 4639 AccDes= 0.00D+00 IRadAn=         5 IDoV= 1 UseB2=F ITyADJ=14
 ICtDFT=  3500011 ScaDFX=  1.000000  1.000000  1.000000  1.000000
 FoFCou: FMM=F IPFlag=           0 FMFlag=      100000 FMFlg1=           0
         NFxFlg=           0 DoJE=T BraDBF=F KetDBF=T FulRan=T
         wScrn=  0.000000 ICntrl=       500 IOpCl=  0 I1Cent=   200000004 NGrid=           0
         NMat0=    1 NMatS0=      1 NMatT0=    0 NMatD0=    1 NMtDS0=    0 NMtDT0=    0
 Petite list used in FoFCou.
 Harris En= -1111.75333481960    
 JPrj=0 DoOrth=F DoCkMO=F.
 Leave Link  401 at Mon Sep  5 05:29:50 2022, MaxMem=  2684354560 cpu:              19.3 elap:               2.4
 (Enter /afs/cad/linux/gaussian/g16_C.01/AVX2/g16/l502.exe)
 Integral symmetry usage will be decided dynamically.
 Closed shell SCF:
 Using DIIS extrapolation, IDIIS=  1040.
 NGot=  2684354560 LenX=  2683817980 LenY=  2683554298
 Requested convergence on RMS density matrix=1.00D-08 within 128 cycles.
 Requested convergence on MAX density matrix=1.00D-06.
 Requested convergence on             energy=1.00D-06.
 No special actions if energy rises.
 Fock matrices will be formed incrementally for  20 cycles.

 Cycle   1  Pass 1  IDiag  1:
 FoFJK:  IHMeth= 1 ICntrl=       0 DoSepK=T KAlg= 0 I1Cent=           0 FoldK=F
 IRaf=         1 NMat=       1 IRICut=       1 DoRegI=T DoRafI=F ISym2E= 0 IDoP0=0 IntGTp=1.
 FoFCou: FMM=F IPFlag=           0 FMFlag=      100000 FMFlg1=           0
         NFxFlg=           0 DoJE=T BraDBF=F KetDBF=F FulRan=T
         wScrn=  0.000000 ICntrl=       500 IOpCl=  0 I1Cent=           0 NGrid=           0
         NMat0=    1 NMatS0=      1 NMatT0=    0 NMatD0=    1 NMtDS0=    0 NMtDT0=    0
 Symmetry not used in FoFCou.
 Inv3:  Mode=1 IEnd=    25491675.
 Iteration    1 A*A^-1 deviation from unit magnitude is 3.33D-15 for    194.
 Iteration    1 A*A^-1 deviation from orthogonality  is 3.21D-15 for   2695    372.
 Iteration    1 A^-1*A deviation from unit magnitude is 3.77D-15 for    194.
 Iteration    1 A^-1*A deviation from orthogonality  is 2.26D-15 for   2180   1571.
 E= -1157.11483000884    
 DIIS: error= 7.55D-02 at cycle   1 NSaved=   1.
 NSaved= 1 IEnMin= 1 EnMin= -1157.11483000884     IErMin= 1 ErrMin= 7.55D-02
 ErrMax= 7.55D-02  0.00D+00 EMaxC= 1.00D-01 BMatC= 1.37D+00 BMatP= 1.37D+00
 IDIUse=3 WtCom= 2.45D-01 WtEn= 7.55D-01
 Coeff-Com:  0.100D+01
 Coeff-En:   0.100D+01
 Coeff:      0.100D+01
 Gap=     0.498 Goal=   None    Shift=    0.000
 GapD=    0.498 DampG=2.000 DampE=0.500 DampFc=1.0000 IDamp=-1.
 RMSDP=1.12D-02 MaxDP=1.14D+00              OVMax= 1.43D-01

 Cycle   2  Pass 1  IDiag  1:
 RMSU=  9.36D-03    CP:  8.54D-01
 E= -1157.24348679648     Delta-E=       -0.128656787642 Rises=F Damp=F
 DIIS: error= 2.20D-02 at cycle   2 NSaved=   2.
 NSaved= 2 IEnMin= 2 EnMin= -1157.24348679648     IErMin= 2 ErrMin= 2.20D-02
 ErrMax= 2.20D-02  0.00D+00 EMaxC= 1.00D-01 BMatC= 6.20D-01 BMatP= 1.37D+00
 IDIUse=3 WtCom= 7.80D-01 WtEn= 2.20D-01
 Coeff-Com:  0.381D+00 0.619D+00
 Coeff-En:   0.414D+00 0.586D+00
 Coeff:      0.388D+00 0.612D+00
 Gap=     0.342 Goal=   None    Shift=    0.000
 RMSDP=5.67D-03 MaxDP=5.90D-01 DE=-1.29D-01 OVMax= 9.31D-02

 Cycle   3  Pass 1  IDiag  1:
 RMSU=  3.54D-03    CP:  7.76D-01  6.82D-01
 E= -1157.58831087249     Delta-E=       -0.344824076010 Rises=F Damp=F
 DIIS: error= 5.77D-03 at cycle   3 NSaved=   3.
 NSaved= 3 IEnMin= 3 EnMin= -1157.58831087249     IErMin= 3 ErrMin= 5.77D-03
 ErrMax= 5.77D-03  0.00D+00 EMaxC= 1.00D-01 BMatC= 5.41D-02 BMatP= 6.20D-01
 IDIUse=3 WtCom= 9.42D-01 WtEn= 5.77D-02
 Coeff-Com:  0.255D-01 0.231D+00 0.743D+00
 Coeff-En:   0.000D+00 0.000D+00 0.100D+01
 Coeff:      0.241D-01 0.218D+00 0.758D+00
 Gap=     0.324 Goal=   None    Shift=    0.000
 RMSDP=2.10D-03 MaxDP=2.96D-01 DE=-3.45D-01 OVMax= 5.38D-02

 Cycle   4  Pass 1  IDiag  1:
 RMSU=  1.29D-03    CP:  7.41D-01  7.61D-01  9.69D-01
 E= -1157.61786612161     Delta-E=       -0.029555249123 Rises=F Damp=F
 DIIS: error= 1.87D-03 at cycle   4 NSaved=   4.
 NSaved= 4 IEnMin= 4 EnMin= -1157.61786612161     IErMin= 4 ErrMin= 1.87D-03
 ErrMax= 1.87D-03  0.00D+00 EMaxC= 1.00D-01 BMatC= 7.27D-03 BMatP= 5.41D-02
 IDIUse=3 WtCom= 9.81D-01 WtEn= 1.87D-02
 Coeff-Com:  0.761D-03 0.922D-01 0.407D+00 0.500D+00
 Coeff-En:   0.000D+00 0.000D+00 0.313D-01 0.969D+00
 Coeff:      0.746D-03 0.904D-01 0.400D+00 0.509D+00
 Gap=     0.322 Goal=   None    Shift=    0.000
 RMSDP=5.98D-04 MaxDP=5.90D-02 DE=-2.96D-02 OVMax= 1.96D-02

 Cycle   5  Pass 1  IDiag  1:
 RMSU=  4.10D-04    CP:  7.36D-01  7.60D-01  1.03D+00  7.72D-01
 E= -1157.62267886436     Delta-E=       -0.004812742749 Rises=F Damp=F
 DIIS: error= 3.23D-04 at cycle   5 NSaved=   5.
 NSaved= 5 IEnMin= 5 EnMin= -1157.62267886436     IErMin= 5 ErrMin= 3.23D-04
 ErrMax= 3.23D-04  0.00D+00 EMaxC= 1.00D-01 BMatC= 2.25D-04 BMatP= 7.27D-03
 IDIUse=3 WtCom= 9.97D-01 WtEn= 3.23D-03
 Coeff-Com: -0.139D-02 0.150D-01 0.996D-01 0.200D+00 0.687D+00
 Coeff-En:   0.000D+00 0.000D+00 0.000D+00 0.000D+00 0.100D+01
 Coeff:     -0.139D-02 0.150D-01 0.993D-01 0.199D+00 0.688D+00
 Gap=     0.322 Goal=   None    Shift=    0.000
 RMSDP=2.32D-04 MaxDP=3.65D-02 DE=-4.81D-03 OVMax= 4.53D-03

 Cycle   6  Pass 1  IDiag  1:
 RMSU=  1.15D-04    CP:  7.32D-01  7.62D-01  1.05D+00  8.68D-01  1.07D+00
 E= -1157.62283326034     Delta-E=       -0.000154395978 Rises=F Damp=F
 DIIS: error= 1.30D-04 at cycle   6 NSaved=   6.
 NSaved= 6 IEnMin= 6 EnMin= -1157.62283326034     IErMin= 6 ErrMin= 1.30D-04
 ErrMax= 1.30D-04  0.00D+00 EMaxC= 1.00D-01 BMatC= 3.24D-05 BMatP= 2.25D-04
 IDIUse=3 WtCom= 9.99D-01 WtEn= 1.30D-03
 Coeff-Com: -0.698D-03-0.677D-02-0.114D-01 0.167D-01 0.304D+00 0.698D+00
 Coeff-En:   0.000D+00 0.000D+00 0.000D+00 0.000D+00 0.000D+00 0.100D+01
 Coeff:     -0.697D-03-0.677D-02-0.113D-01 0.167D-01 0.304D+00 0.698D+00
 Gap=     0.323 Goal=   None    Shift=    0.000
 RMSDP=1.29D-04 MaxDP=2.32D-02 DE=-1.54D-04 OVMax= 1.10D-03

 Cycle   7  Pass 1  IDiag  1:
 RMSU=  4.89D-05    CP:  7.30D-01  7.62D-01  1.07D+00  8.97D-01  1.17D+00
                    CP:  1.09D+00
 E= -1157.62286198410     Delta-E=       -0.000028723761 Rises=F Damp=F
 DIIS: error= 4.25D-05 at cycle   7 NSaved=   7.
 NSaved= 7 IEnMin= 7 EnMin= -1157.62286198410     IErMin= 7 ErrMin= 4.25D-05
 ErrMax= 4.25D-05  0.00D+00 EMaxC= 1.00D-01 BMatC= 3.31D-06 BMatP= 3.24D-05
 IDIUse=1 WtCom= 1.00D+00 WtEn= 0.00D+00
 Coeff-Com: -0.133D-03-0.483D-02-0.161D-01-0.161D-01 0.567D-01 0.295D+00
 Coeff-Com:  0.686D+00
 Coeff:     -0.133D-03-0.483D-02-0.161D-01-0.161D-01 0.567D-01 0.295D+00
 Coeff:      0.686D+00
 Gap=     0.323 Goal=   None    Shift=    0.000
 RMSDP=4.04D-05 MaxDP=6.68D-03 DE=-2.87D-05 OVMax= 5.14D-04

 Cycle   8  Pass 1  IDiag  1:
 RMSU=  1.36D-05    CP:  7.30D-01  7.62D-01  1.07D+00  9.11D-01  1.20D+00
                    CP:  1.19D+00  1.15D+00
 E= -1157.62286524862     Delta-E=       -0.000003264522 Rises=F Damp=F
 DIIS: error= 1.14D-05 at cycle   8 NSaved=   8.
 NSaved= 8 IEnMin= 8 EnMin= -1157.62286524862     IErMin= 8 ErrMin= 1.14D-05
 ErrMax= 1.14D-05  0.00D+00 EMaxC= 1.00D-01 BMatC= 2.30D-07 BMatP= 3.31D-06
 IDIUse=1 WtCom= 1.00D+00 WtEn= 0.00D+00
 Coeff-Com:  0.370D-04-0.729D-03-0.375D-02-0.763D-02-0.181D-01-0.204D-02
 Coeff-Com:  0.184D+00 0.848D+00
 Coeff:      0.370D-04-0.729D-03-0.375D-02-0.763D-02-0.181D-01-0.204D-02
 Coeff:      0.184D+00 0.848D+00
 Gap=     0.323 Goal=   None    Shift=    0.000
 RMSDP=1.38D-05 MaxDP=2.17D-03 DE=-3.26D-06 OVMax= 2.72D-04

 Cycle   9  Pass 1  IDiag  1:
 RMSU=  6.25D-06    CP:  7.30D-01  7.62D-01  1.07D+00  9.13D-01  1.22D+00
                    CP:  1.23D+00  1.26D+00  1.23D+00
 E= -1157.62286564441     Delta-E=       -0.000000395785 Rises=F Damp=F
 DIIS: error= 3.43D-06 at cycle   9 NSaved=   9.
 NSaved= 9 IEnMin= 9 EnMin= -1157.62286564441     IErMin= 9 ErrMin= 3.43D-06
 ErrMax= 3.43D-06  0.00D+00 EMaxC= 1.00D-01 BMatC= 2.83D-08 BMatP= 2.30D-07
 IDIUse=1 WtCom= 1.00D+00 WtEn= 0.00D+00
 Coeff-Com:  0.230D-04 0.467D-03 0.125D-02-0.592D-04-0.114D-01-0.416D-01
 Coeff-Com: -0.369D-01 0.239D+00 0.849D+00
 Coeff:      0.230D-04 0.467D-03 0.125D-02-0.592D-04-0.114D-01-0.416D-01
 Coeff:     -0.369D-01 0.239D+00 0.849D+00
 Gap=     0.323 Goal=   None    Shift=    0.000
 RMSDP=5.05D-06 MaxDP=5.73D-04 DE=-3.96D-07 OVMax= 1.22D-04

 Cycle  10  Pass 1  IDiag  1:
 RMSU=  1.78D-06    CP:  7.30D-01  7.62D-01  1.07D+00  9.14D-01  1.22D+00
                    CP:  1.25D+00  1.33D+00  1.37D+00  1.40D+00
 E= -1157.62286570064     Delta-E=       -0.000000056230 Rises=F Damp=F
 DIIS: error= 1.13D-06 at cycle  10 NSaved=  10.
 NSaved=10 IEnMin=10 EnMin= -1157.62286570064     IErMin=10 ErrMin= 1.13D-06
 ErrMax= 1.13D-06  0.00D+00 EMaxC= 1.00D-01 BMatC= 2.66D-09 BMatP= 2.83D-08
 IDIUse=1 WtCom= 1.00D+00 WtEn= 0.00D+00
 Coeff-Com:  0.305D-05 0.161D-03 0.583D-03 0.543D-03-0.528D-03-0.948D-02
 Coeff-Com: -0.239D-01-0.286D-01 0.166D+00 0.895D+00
 Coeff:      0.305D-05 0.161D-03 0.583D-03 0.543D-03-0.528D-03-0.948D-02
 Coeff:     -0.239D-01-0.286D-01 0.166D+00 0.895D+00
 Gap=     0.323 Goal=   None    Shift=    0.000
 RMSDP=1.84D-06 MaxDP=1.50D-04 DE=-5.62D-08 OVMax= 5.47D-05

 Cycle  11  Pass 1  IDiag  1:
 RMSU=  6.24D-07    CP:  7.30D-01  7.62D-01  1.07D+00  9.13D-01  1.22D+00
                    CP:  1.25D+00  1.34D+00  1.42D+00  1.58D+00  1.36D+00
 E= -1157.62286570678     Delta-E=       -0.000000006142 Rises=F Damp=F
 DIIS: error= 9.12D-07 at cycle  11 NSaved=  11.
 NSaved=11 IEnMin=11 EnMin= -1157.62286570678     IErMin=11 ErrMin= 9.12D-07
 ErrMax= 9.12D-07  0.00D+00 EMaxC= 1.00D-01 BMatC= 6.16D-10 BMatP= 2.66D-09
 IDIUse=1 WtCom= 1.00D+00 WtEn= 0.00D+00
 Coeff-Com: -0.215D-05-0.843D-05 0.368D-04 0.216D-03 0.176D-02 0.284D-02
 Coeff-Com: -0.206D-02-0.463D-01-0.690D-01 0.338D+00 0.774D+00
 Coeff:     -0.215D-05-0.843D-05 0.368D-04 0.216D-03 0.176D-02 0.284D-02
 Coeff:     -0.206D-02-0.463D-01-0.690D-01 0.338D+00 0.774D+00
 Gap=     0.323 Goal=   None    Shift=    0.000
 RMSDP=8.82D-07 MaxDP=8.39D-05 DE=-6.14D-09 OVMax= 2.15D-05

 Cycle  12  Pass 1  IDiag  1:
 RMSU=  2.66D-07    CP:  7.30D-01  7.62D-01  1.07D+00  9.13D-01  1.22D+00
                    CP:  1.25D+00  1.35D+00  1.43D+00  1.64D+00  1.63D+00
                    CP:  1.33D+00
 E= -1157.62286570788     Delta-E=       -0.000000001097 Rises=F Damp=F
 DIIS: error= 2.56D-07 at cycle  12 NSaved=  12.
 NSaved=12 IEnMin=12 EnMin= -1157.62286570788     IErMin=12 ErrMin= 2.56D-07
 ErrMax= 2.56D-07  0.00D+00 EMaxC= 1.00D-01 BMatC= 7.54D-11 BMatP= 6.16D-10
 IDIUse=1 WtCom= 1.00D+00 WtEn= 0.00D+00
 Coeff-Com: -0.844D-06-0.180D-04-0.489D-04 0.122D-04 0.552D-03 0.164D-02
 Coeff-Com:  0.218D-02-0.102D-01-0.406D-01-0.109D-01 0.240D+00 0.817D+00
 Coeff:     -0.844D-06-0.180D-04-0.489D-04 0.122D-04 0.552D-03 0.164D-02
 Coeff:      0.218D-02-0.102D-01-0.406D-01-0.109D-01 0.240D+00 0.817D+00
 Gap=     0.323 Goal=   None    Shift=    0.000
 RMSDP=2.87D-07 MaxDP=2.40D-05 DE=-1.10D-09 OVMax= 9.61D-06

 Cycle  13  Pass 1  IDiag  1:
 RMSU=  1.05D-07    CP:  7.30D-01  7.62D-01  1.07D+00  9.13D-01  1.22D+00
                    CP:  1.25D+00  1.35D+00  1.44D+00  1.66D+00  1.72D+00
                    CP:  1.53D+00  1.23D+00
 E= -1157.62286570801     Delta-E=       -0.000000000132 Rises=F Damp=F
 DIIS: error= 1.46D-07 at cycle  13 NSaved=  13.
 NSaved=13 IEnMin=13 EnMin= -1157.62286570801     IErMin=13 ErrMin= 1.46D-07
 ErrMax= 1.46D-07  0.00D+00 EMaxC= 1.00D-01 BMatC= 1.46D-11 BMatP= 7.54D-11
 IDIUse=1 WtCom= 1.00D+00 WtEn= 0.00D+00
 Coeff-Com:  0.746D-07-0.496D-05-0.244D-04-0.331D-04-0.149D-03 0.946D-05
 Coeff-Com:  0.121D-02 0.539D-02-0.126D-02-0.713D-01-0.677D-01 0.306D+00
 Coeff-Com:  0.828D+00
 Coeff:      0.746D-07-0.496D-05-0.244D-04-0.331D-04-0.149D-03 0.946D-05
 Coeff:      0.121D-02 0.539D-02-0.126D-02-0.713D-01-0.677D-01 0.306D+00
 Coeff:      0.828D+00
 Gap=     0.323 Goal=   None    Shift=    0.000
 RMSDP=1.51D-07 MaxDP=1.88D-05 DE=-1.32D-10 OVMax= 4.57D-06

 Cycle  14  Pass 1  IDiag  1:
 RMSU=  4.43D-08    CP:  7.30D-01  7.62D-01  1.07D+00  9.13D-01  1.22D+00
                    CP:  1.25D+00  1.35D+00  1.44D+00  1.67D+00  1.76D+00
                    CP:  1.62D+00  1.40D+00  1.33D+00
 E= -1157.62286570806     Delta-E=       -0.000000000055 Rises=F Damp=F
 DIIS: error= 7.14D-08 at cycle  14 NSaved=  14.
 NSaved=14 IEnMin=14 EnMin= -1157.62286570806     IErMin=14 ErrMin= 7.14D-08
 ErrMax= 7.14D-08  0.00D+00 EMaxC= 1.00D-01 BMatC= 1.03D-12 BMatP= 1.46D-11
 IDIUse=1 WtCom= 1.00D+00 WtEn= 0.00D+00
 Coeff-Com:  0.838D-07 0.689D-06 0.942D-06-0.470D-05-0.834D-04-0.147D-03
 Coeff-Com: -0.623D-04 0.197D-02 0.387D-02-0.858D-02-0.370D-01-0.400D-01
 Coeff-Com:  0.119D+00 0.961D+00
 Coeff:      0.838D-07 0.689D-06 0.942D-06-0.470D-05-0.834D-04-0.147D-03
 Coeff:     -0.623D-04 0.197D-02 0.387D-02-0.858D-02-0.370D-01-0.400D-01
 Coeff:      0.119D+00 0.961D+00
 Gap=     0.323 Goal=   None    Shift=    0.000
 RMSDP=5.38D-08 MaxDP=6.65D-06 DE=-5.53D-11 OVMax= 1.41D-06

 Cycle  15  Pass 1  IDiag  1:
 RMSU=  1.27D-08    CP:  7.30D-01  7.62D-01  1.07D+00  9.13D-01  1.22D+00
                    CP:  1.25D+00  1.35D+00  1.44D+00  1.67D+00  1.77D+00
                    CP:  1.64D+00  1.46D+00  1.55D+00  1.36D+00
 E= -1157.62286570808     Delta-E=       -0.000000000022 Rises=F Damp=F
 DIIS: error= 1.10D-08 at cycle  15 NSaved=  15.
 NSaved=15 IEnMin=15 EnMin= -1157.62286570808     IErMin=15 ErrMin= 1.10D-08
 ErrMax= 1.10D-08  0.00D+00 EMaxC= 1.00D-01 BMatC= 2.13D-13 BMatP= 1.03D-12
 IDIUse=1 WtCom= 1.00D+00 WtEn= 0.00D+00
 Coeff-Com:  0.847D-08 0.806D-06 0.345D-05 0.325D-05-0.121D-04-0.472D-04
 Coeff-Com: -0.193D-03-0.188D-04 0.140D-02 0.620D-02-0.465D-02-0.534D-01
 Coeff-Com: -0.685D-01 0.331D+00 0.788D+00
 Coeff:      0.847D-08 0.806D-06 0.345D-05 0.325D-05-0.121D-04-0.472D-04
 Coeff:     -0.193D-03-0.188D-04 0.140D-02 0.620D-02-0.465D-02-0.534D-01
 Coeff:     -0.685D-01 0.331D+00 0.788D+00
 Gap=     0.323 Goal=   None    Shift=    0.000
 RMSDP=1.54D-08 MaxDP=2.10D-06 DE=-2.16D-11 OVMax= 4.26D-07

 Cycle  16  Pass 1  IDiag  1:
 RMSU=  4.17D-09    CP:  7.30D-01  7.62D-01  1.07D+00  9.13D-01  1.22D+00
                    CP:  1.25D+00  1.35D+00  1.44D+00  1.67D+00  1.77D+00
                    CP:  1.64D+00  1.47D+00  1.60D+00  1.51D+00  1.17D+00
 E= -1157.62286570806     Delta-E=        0.000000000024 Rises=F Damp=F
 DIIS: error= 1.11D-08 at cycle  16 NSaved=  16.
 NSaved=16 IEnMin=15 EnMin= -1157.62286570808     IErMin=15 ErrMin= 1.10D-08
 ErrMax= 1.11D-08  0.00D+00 EMaxC= 1.00D-01 BMatC= 2.18D-14 BMatP= 2.13D-13
 IDIUse=1 WtCom= 1.00D+00 WtEn= 0.00D+00
 Coeff-Com: -0.449D-08 0.149D-06 0.832D-06 0.162D-05 0.529D-05 0.477D-05
 Coeff-Com: -0.489D-04-0.214D-03-0.343D-04 0.286D-02 0.313D-02-0.104D-01
 Coeff-Com: -0.336D-01-0.170D-01 0.231D+00 0.825D+00
 Coeff:     -0.449D-08 0.149D-06 0.832D-06 0.162D-05 0.529D-05 0.477D-05
 Coeff:     -0.489D-04-0.214D-03-0.343D-04 0.286D-02 0.313D-02-0.104D-01
 Coeff:     -0.336D-01-0.170D-01 0.231D+00 0.825D+00
 Gap=     0.323 Goal=   None    Shift=    0.000
 RMSDP=3.53D-09 MaxDP=2.83D-07 DE= 2.39D-11 OVMax= 9.82D-08

 Error on total polarization charges =  0.04963
 SCF Done:  E(RwB97XD) =  -1157.62286571     A.U. after   16 cycles
            NFock= 16  Conv=0.35D-08     -V/T= 2.0088
 KE= 1.147497040458D+03 PE=-6.570281000209D+03 EE= 2.336490642052D+03
 SMD-CDS (non-electrostatic) energy       (kcal/mol) =      -3.76
 (included in total energy above)
 Leave Link  502 at Mon Sep  5 05:33:07 2022, MaxMem=  2684354560 cpu:            1563.0 elap:             196.3
 (Enter /afs/cad/linux/gaussian/g16_C.01/AVX2/g16/l601.exe)
 Copying SCF densities to generalized density rwf, IOpCl= 0 IROHF=0.

 **********************************************************************

            Population analysis using the SCF Density.

 **********************************************************************

 Orbital symmetries:
       Occupied  (A) (A) (A) (A) (A) (A) (A) (A) (A) (A) (A) (A)
                 (A) (A) (A) (A) (A) (A) (A) (A) (A) (A) (A) (A)
                 (A) (A) (A) (A) (A) (A) (A) (A) (A) (A) (A) (A)
                 (A) (A) (A) (A) (A) (A) (A) (A) (A) (A) (A) (A)
                 (A) (A) (A) (A) (A) (A) (A) (A) (A) (A) (A) (A)
                 (A) (A) (A) (A) (A) (A) (A) (A) (A) (A) (A) (A)
                 (A) (A) (A) (A) (A) (A) (A) (A) (A) (A) (A)
       Virtual   (A) (A) (A) (A) (A) (A) (A) (A) (A) (A) (A) (A)
                 (A) (A) (A) (A) (A) (A) (A) (A) (A) (A) (A) (A)
                 (A) (A) (A) (A) (A) (A) (A) (A) (A) (A) (A) (A)
                 (A) (A) (A) (A) (A) (A) (A) (A) (A) (A) (A) (A)
                 (A) (A) (A) (A) (A) (A) (A) (A) (A) (A) (A) (A)
                 (A) (A) (A) (A) (A) (A) (A) (A) (A) (A) (A) (A)
                 (A) (A) (A) (A) (A) (A) (A) (A) (A) (A) (A) (A)
                 (A) (A) (A) (A) (A) (A) (A) (A) (A) (A) (A) (A)
                 (A) (A) (A) (A) (A) (A) (A) (A) (A) (A) (A) (A)
                 (A) (A) (A) (A) (A) (A) (A) (A) (A) (A) (A) (A)
                 (A) (A) (A) (A) (A) (A) (A) (A) (A) (A) (A) (A)
                 (A) (A) (A) (A) (A) (A) (A) (A) (A) (A) (A) (A)
                 (A) (A) (A) (A) (A) (A) (A) (A) (A) (A) (A) (A)
                 (A) (A) (A) (A) (A) (A) (A) (A) (A) (A) (A) (A)
                 (A) (A) (A) (A) (A) (A) (A) (A) (A) (A) (A) (A)
                 (A) (A) (A) (A) (A) (A) (A) (A) (A) (A) (A) (A)
                 (A) (A) (A) (A) (A) (A) (A) (A) (A) (A) (A) (A)
                 (A) (A) (A) (A) (A) (A) (A) (A) (A) (A) (A) (A)
                 (A) (A) (A) (A) (A) (A) (A) (A) (A) (A) (A) (A)
                 (A) (A) (A) (A) (A) (A) (A) (A) (A) (A) (A) (A)
                 (A) (A) (A) (A) (A) (A) (A) (A) (A) (A) (A) (A)
                 (A) (A) (A) (A) (A) (A) (A) (A) (A) (A) (A) (A)
                 (A) (A) (A) (A) (A) (A) (A) (A) (A) (A) (A) (A)
                 (A) (A) (A) (A) (A) (A) (A) (A) (A) (A) (A) (A)
                 (A) (A) (A) (A) (A) (A) (A) (A) (A) (A) (A) (A)
                 (A) (A) (A) (A) (A) (A) (A) (A) (A) (A) (A) (A)
                 (A) (A) (A) (A) (A) (A) (A) (A) (A) (A) (A) (A)
                 (A) (A) (A) (A) (A) (A) (A) (A) (A) (A) (A) (A)
                 (A) (A) (A) (A) (A) (A) (A) (A) (A) (A) (A) (A)
                 (A) (A) (A) (A) (A) (A) (A) (A) (A) (A) (A) (A)
                 (A) (A) (A) (A) (A) (A) (A) (A) (A) (A) (A) (A)
                 (A) (A) (A) (A) (A) (A) (A) (A) (A) (A) (A) (A)
                 (A) (A) (A) (A) (A) (A) (A) (A) (A) (A) (A) (A)
                 (A) (A) (A) (A) (A) (A) (A) (A) (A) (A) (A) (A)
                 (A) (A) (A) (A) (A) (A) (A) (A) (A) (A) (A) (A)
                 (A) (A) (A) (A) (A) (A) (A) (A)
 The electronic state is 1-A.
 Alpha  occ. eigenvalues --  -24.85970 -24.81517 -24.81481 -24.81375 -19.33748
 Alpha  occ. eigenvalues --  -19.28230 -10.45635 -10.44226 -10.35833 -10.33663
 Alpha  occ. eigenvalues --  -10.32570 -10.31804 -10.31763 -10.31196 -10.30911
 Alpha  occ. eigenvalues --  -10.30668 -10.30605 -10.30550 -10.30511 -10.30464
 Alpha  occ. eigenvalues --  -10.29455  -6.99658  -1.33664  -1.29587  -1.27544
 Alpha  occ. eigenvalues --   -1.27456  -1.22645  -1.12386  -0.97669  -0.96412
 Alpha  occ. eigenvalues --   -0.91137  -0.87742  -0.84841  -0.84769  -0.83013
 Alpha  occ. eigenvalues --   -0.80330  -0.75261  -0.71390  -0.70404  -0.69726
 Alpha  occ. eigenvalues --   -0.68102  -0.65603  -0.64675  -0.63245  -0.61634
 Alpha  occ. eigenvalues --   -0.61521  -0.60938  -0.59822  -0.59071  -0.58824
 Alpha  occ. eigenvalues --   -0.57225  -0.56521  -0.56046  -0.54948  -0.53966
 Alpha  occ. eigenvalues --   -0.53080  -0.52871  -0.51523  -0.51454  -0.50683
 Alpha  occ. eigenvalues --   -0.50402  -0.50141  -0.49758  -0.48809  -0.48537
 Alpha  occ. eigenvalues --   -0.48380  -0.47586  -0.47479  -0.47057  -0.46996
 Alpha  occ. eigenvalues --   -0.46486  -0.46154  -0.44959  -0.44695  -0.43373
 Alpha  occ. eigenvalues --   -0.42518  -0.42141  -0.41939  -0.39860  -0.38448
 Alpha  occ. eigenvalues --   -0.37254  -0.33308  -0.30447
 Alpha virt. eigenvalues --    0.01855   0.02455   0.05268   0.05621   0.06715
 Alpha virt. eigenvalues --    0.07367   0.07501   0.07682   0.08769   0.09066
 Alpha virt. eigenvalues --    0.09172   0.09442   0.09935   0.10486   0.10730
 Alpha virt. eigenvalues --    0.11082   0.11202   0.11825   0.12418   0.13006
 Alpha virt. eigenvalues --    0.13146   0.13398   0.13812   0.14281   0.14994
 Alpha virt. eigenvalues --    0.15359   0.15385   0.16028   0.16694   0.16806
 Alpha virt. eigenvalues --    0.17353   0.17678   0.18781   0.19196   0.19452
 Alpha virt. eigenvalues --    0.19526   0.20022   0.20429   0.20764   0.20935
 Alpha virt. eigenvalues --    0.21365   0.21508   0.22084   0.22311   0.22674
 Alpha virt. eigenvalues --    0.23232   0.23572   0.24177   0.24502   0.24880
 Alpha virt. eigenvalues --    0.25074   0.25460   0.25830   0.26265   0.26484
 Alpha virt. eigenvalues --    0.26710   0.27090   0.27503   0.27812   0.27961
 Alpha virt. eigenvalues --    0.28088   0.28701   0.28927   0.29152   0.29487
 Alpha virt. eigenvalues --    0.29929   0.30259   0.30474   0.31118   0.31281
 Alpha virt. eigenvalues --    0.31480   0.32378   0.32570   0.32813   0.32981
 Alpha virt. eigenvalues --    0.33347   0.33788   0.33942   0.34789   0.35218
 Alpha virt. eigenvalues --    0.35859   0.36000   0.36061   0.36754   0.37038
 Alpha virt. eigenvalues --    0.37471   0.37771   0.37939   0.38332   0.38912
 Alpha virt. eigenvalues --    0.39089   0.39730   0.40121   0.40458   0.40697
 Alpha virt. eigenvalues --    0.41340   0.41825   0.41855   0.42610   0.43057
 Alpha virt. eigenvalues --    0.43534   0.43925   0.44083   0.44544   0.45012
 Alpha virt. eigenvalues --    0.45339   0.45505   0.45847   0.46721   0.47002
 Alpha virt. eigenvalues --    0.48135   0.48432   0.48990   0.49657   0.50160
 Alpha virt. eigenvalues --    0.50986   0.51962   0.52021   0.53604   0.55338
 Alpha virt. eigenvalues --    0.56494   0.57219   0.57761   0.57936   0.59041
 Alpha virt. eigenvalues --    0.61287   0.61569   0.63963   0.64930   0.67849
 Alpha virt. eigenvalues --    0.68798   0.70376   0.74395   0.75087   0.76312
 Alpha virt. eigenvalues --    0.76784   0.77561   0.78279   0.78665   0.78959
 Alpha virt. eigenvalues --    0.79626   0.80051   0.80533   0.81486   0.81635
 Alpha virt. eigenvalues --    0.82243   0.82803   0.83559   0.83900   0.84031
 Alpha virt. eigenvalues --    0.84876   0.85275   0.86879   0.87144   0.87630
 Alpha virt. eigenvalues --    0.88047   0.89575   0.90265   0.92197   0.92589
 Alpha virt. eigenvalues --    0.93802   0.94396   0.95876   0.97519   0.98278
 Alpha virt. eigenvalues --    0.99358   0.99489   1.00071   1.00523   1.02689
 Alpha virt. eigenvalues --    1.03228   1.03553   1.04053   1.05187   1.05627
 Alpha virt. eigenvalues --    1.07381   1.07772   1.08839   1.10156   1.10650
 Alpha virt. eigenvalues --    1.11909   1.12393   1.12580   1.12967   1.14481
 Alpha virt. eigenvalues --    1.15154   1.17025   1.17889   1.18160   1.19384
 Alpha virt. eigenvalues --    1.20088   1.21713   1.22024   1.23059   1.23787
 Alpha virt. eigenvalues --    1.24146   1.25335   1.26517   1.27092   1.28730
 Alpha virt. eigenvalues --    1.31187   1.31668   1.33130   1.33877   1.34613
 Alpha virt. eigenvalues --    1.35105   1.36375   1.37422   1.38479   1.41223
 Alpha virt. eigenvalues --    1.42360   1.42747   1.43785   1.44381   1.45475
 Alpha virt. eigenvalues --    1.46082   1.47664   1.48526   1.50243   1.50343
 Alpha virt. eigenvalues --    1.50473   1.51958   1.53407   1.54242   1.55078
 Alpha virt. eigenvalues --    1.57071   1.58086   1.58592   1.60300   1.60946
 Alpha virt. eigenvalues --    1.61780   1.63708   1.65308   1.66368   1.68092
 Alpha virt. eigenvalues --    1.69202   1.70171   1.70336   1.71900   1.73394
 Alpha virt. eigenvalues --    1.73752   1.74686   1.75703   1.77825   1.79178
 Alpha virt. eigenvalues --    1.79568   1.81482   1.82430   1.82833   1.84507
 Alpha virt. eigenvalues --    1.85151   1.85436   1.86476   1.88149   1.88826
 Alpha virt. eigenvalues --    1.89599   1.91052   1.92178   1.92763   1.93849
 Alpha virt. eigenvalues --    1.94447   1.95274   1.96042   1.96743   1.97390
 Alpha virt. eigenvalues --    1.97984   1.98970   1.99417   2.00443   2.00934
 Alpha virt. eigenvalues --    2.01618   2.02647   2.03390   2.03766   2.03984
 Alpha virt. eigenvalues --    2.04758   2.05119   2.05498   2.06102   2.06994
 Alpha virt. eigenvalues --    2.07253   2.08229   2.08944   2.10009   2.10556
 Alpha virt. eigenvalues --    2.10997   2.11918   2.12298   2.13255   2.14386
 Alpha virt. eigenvalues --    2.15188   2.15393   2.16385   2.16733   2.17626
 Alpha virt. eigenvalues --    2.19098   2.19576   2.20173   2.21248   2.22191
 Alpha virt. eigenvalues --    2.23038   2.24421   2.24958   2.26727   2.27673
 Alpha virt. eigenvalues --    2.29254   2.29478   2.31157   2.32050   2.33936
 Alpha virt. eigenvalues --    2.35403   2.36947   2.37544   2.38838   2.39591
 Alpha virt. eigenvalues --    2.40774   2.43584   2.43836   2.44822   2.46899
 Alpha virt. eigenvalues --    2.47905   2.48319   2.49183   2.49807   2.50427
 Alpha virt. eigenvalues --    2.51361   2.53099   2.54645   2.56598   2.58004
 Alpha virt. eigenvalues --    2.59219   2.59682   2.60216   2.61338   2.62274
 Alpha virt. eigenvalues --    2.62537   2.63618   2.64866   2.65188   2.66249
 Alpha virt. eigenvalues --    2.67468   2.68262   2.68973   2.69751   2.73253
 Alpha virt. eigenvalues --    2.74015   2.75121   2.75779   2.76201   2.77768
 Alpha virt. eigenvalues --    2.78087   2.79059   2.79491   2.80304   2.82519
 Alpha virt. eigenvalues --    2.84598   2.84883   2.86565   2.87277   2.88519
 Alpha virt. eigenvalues --    2.90500   2.91723   2.94591   2.95405   2.95724
 Alpha virt. eigenvalues --    2.96490   2.96877   2.97812   2.99156   3.00735
[...]
    22  H    0.002695  -0.000006  -0.000029  -0.000000   0.000000  -0.000000
    23  F   -0.001886  -0.000000  -0.000295  -0.000000   0.000000  -0.000000
    24  B   -0.000105  -0.000101   0.001041   0.000057  -0.000001  -0.000020
    25  F    0.001635  -0.000000  -0.000859  -0.000002   0.000000  -0.000000
    26  F    0.001574  -0.000001  -0.001261  -0.000004  -0.000000  -0.000000
    27  F   -0.000278   0.000000   0.000072  -0.000000  -0.000000  -0.000000
    28  C   -0.009250  -0.000273   0.000449  -0.000000  -0.000002   0.000000
    29  C   -0.000878   0.000026   0.000057   0.000000  -0.000000  -0.000000
    30  H   -0.000012  -0.000000   0.000000  -0.000000  -0.000000   0.000000
    31  H   -0.000037  -0.000000   0.000001  -0.000000  -0.000000   0.000000
    32  H   -0.000000   0.000000  -0.000000  -0.000000  -0.000000   0.000000
    33  H   -0.000001   0.000000  -0.000000  -0.000000   0.000000   0.000000
    34  H   -0.000000  -0.000000   0.000000  -0.000000  -0.000000  -0.000000
    35  C   -0.127270  -0.004315   0.006444  -0.000003   0.000036  -0.000000
    36  O   -0.001134   0.000008  -0.000031  -0.000000  -0.000000   0.000000
    37  O   -0.000939  -0.000029   0.000113  -0.000000   0.000000   0.000000
    38  C   -0.007004   0.000011   0.000944  -0.000000  -0.000001  -0.000000
    39  H   -0.000041   0.000000   0.000001   0.000000   0.000000  -0.000000
    40  H    0.000015  -0.000000  -0.000000   0.000000   0.000000  -0.000000
    41  H   -0.000157   0.000000  -0.000003  -0.000000  -0.000000   0.000000
              19         20         21         22         23         24
     1  C   -0.827253  -0.059871  -0.029822  -0.117350   0.160884   0.029366
     2  C   -0.125532   0.011588  -0.016507   0.028153  -0.068723   0.010845
     3  C    0.369809   0.028473  -0.032191   0.029403  -0.103843  -0.005196
     4  H    0.028394   0.000032   0.000087  -0.000811   0.000238  -0.000399
     5  H   -0.051284   0.000033   0.000279  -0.000164   0.007443   0.000982
     6  C    0.152736  -0.004348   0.000785  -0.008369   0.054536  -0.006060
     7  H   -0.003561   0.000002   0.000001   0.000017   0.001271   0.001140
     8  C   -0.022260  -0.001157   0.002603  -0.003481   0.014462   0.013194
     9  C    0.016857  -0.000889   0.000503   0.000114   0.002677  -0.013207
    10  C   -0.054779   0.001020  -0.002396   0.002050  -0.011305   0.016496
    11  C   -0.008974  -0.000079   0.000012  -0.000164  -0.001401  -0.002051
    12  H    0.000157   0.000000   0.000000  -0.000000   0.000025   0.001140
    13  C    0.062916   0.000246  -0.000415   0.002695  -0.001886  -0.000105
    14  H    0.001644   0.000000   0.000000  -0.000006  -0.000000  -0.000101
    15  C   -0.006898  -0.000011   0.000003  -0.000029  -0.000295   0.001041
    16  H    0.000002   0.000000  -0.000000  -0.000000  -0.000000   0.000057
    17  H    0.000010   0.000000   0.000000   0.000000   0.000000  -0.000001
    18  H    0.000000  -0.000000  -0.000000  -0.000000  -0.000000  -0.000020
    19  C    8.306248   0.426058   0.428797   0.434752  -0.081171  -0.072626
    20  H    0.426058   0.463655  -0.018347  -0.020106  -0.003183   0.001297
    21  H    0.428797  -0.018347   0.460768  -0.018980   0.006262   0.000337
    22  H    0.434752  -0.020106  -0.018980   0.466474  -0.005795  -0.000097
    23  F   -0.081171  -0.003183   0.006262  -0.005795   9.398799   0.103734
    24  B   -0.072626   0.001297   0.000337  -0.000097   0.103734   2.710311
    25  F    0.047434   0.000245   0.000024  -0.000019   0.032217   0.205398
    26  F    0.041875  -0.002639   0.000617  -0.004465  -0.011620   0.231777
    27  F   -0.082388  -0.000984  -0.000013   0.000051   0.014806   0.214100
    28  C   -1.674767  -0.042433  -0.018307   0.006212  -0.065746   0.033496
    29  C    0.058992   0.002359  -0.004673  -0.003872  -0.008656  -0.008519
    30  H   -0.021986   0.000337  -0.000010  -0.000038   0.006768   0.000430
    31  H    0.008771  -0.000098   0.000022  -0.000096  -0.012019   0.000019
    32  H    0.011577   0.000088  -0.000012  -0.000002  -0.000229   0.000449
    33  H   -0.004897  -0.002549  -0.000218   0.000091  -0.001670   0.000165
    34  H   -0.002270   0.000240   0.000131  -0.000002   0.008964  -0.001502
    35  C   -0.930967  -0.005277   0.012511  -0.006581  -0.032072   0.012288
    36  O   -0.014526  -0.000001  -0.000056  -0.000070   0.000926  -0.000828
    37  O    0.005185   0.000009  -0.000053  -0.000046   0.001542   0.000153
    38  C   -0.037202  -0.000008  -0.000048  -0.000131   0.000937   0.000499
    39  H    0.000026   0.000000   0.000000  -0.000000  -0.000000   0.000006
    40  H   -0.000849  -0.000000  -0.000000  -0.000000  -0.000003   0.000020
    41  H    0.000633   0.000000   0.000000   0.000000   0.000006  -0.000027
              25         26         27         28         29         30
     1  C   -0.068584   0.022001   0.080530  -1.207390   0.637555   0.006083
     2  C   -0.003777  -0.038184  -0.004175   0.435461  -0.223745  -0.021460
     3  C    0.021084  -0.019530  -0.006111   0.240322  -0.425736  -0.020146
     4  H    0.000004   0.000177   0.000003  -0.003819   0.000036  -0.000005
     5  H    0.000012   0.000012   0.000006  -0.002543   0.010707  -0.000515
     6  C    0.013405   0.023681   0.001676  -0.223199   0.103566  -0.003965
     7  H    0.000271  -0.000125   0.000094   0.004866  -0.000474   0.000001
     8  C    0.005611   0.026631  -0.004234   0.009531   0.001098  -0.000014
     9  C   -0.012937  -0.047078   0.009080  -0.019976   0.006046  -0.000051
    10  C    0.005655   0.022212  -0.003905   0.017872  -0.003359  -0.000149
    11  C   -0.000841  -0.002936   0.002101   0.002999   0.000687  -0.000003
    12  H    0.000157   0.000211  -0.000000  -0.000066  -0.000025  -0.000000
    13  C    0.001635   0.001574  -0.000278  -0.009250  -0.000878  -0.000012
    14  H   -0.000000  -0.000001   0.000000  -0.000273   0.000026  -0.000000
    15  C   -0.000859  -0.001261   0.000072   0.000449   0.000057   0.000000
    16  H   -0.000002  -0.000004  -0.000000  -0.000000   0.000000  -0.000000
    17  H    0.000000  -0.000000  -0.000000  -0.000002  -0.000000  -0.000000
    18  H   -0.000000  -0.000000  -0.000000   0.000000  -0.000000   0.000000
    19  C    0.047434   0.041875  -0.082388  -1.674767   0.058992  -0.021986
    20  H    0.000245  -0.002639  -0.000984  -0.042433   0.002359   0.000337
    21  H    0.000024   0.000617  -0.000013  -0.018307  -0.004673  -0.000010
    22  H   -0.000019  -0.004465   0.000051   0.006212  -0.003872  -0.000038
    23  F    0.032217  -0.011620   0.014806  -0.065746  -0.008656   0.006768
    24  B    0.205398   0.231777   0.214100   0.033496  -0.008519   0.000430
    25  F    9.395262  -0.026903  -0.032828  -0.026932   0.002917   0.000019
    26  F   -0.026903   9.360810  -0.041813  -0.010465  -0.002128   0.000005
    27  F   -0.032828  -0.041813   9.403561   0.024480  -0.014784  -0.000042
    28  C   -0.026932  -0.010465   0.024480   8.295003  -0.830752   0.329737
    29  C    0.002917  -0.002128  -0.014784  -0.830752   6.256801  -0.023285
    30  H    0.000019   0.000005  -0.000042   0.329737  -0.023285   0.488065
    31  H   -0.000047  -0.000066   0.000104   0.387263   0.013969  -0.022647
    32  H   -0.000001   0.000001   0.000175  -0.120004   0.468742  -0.002893
    33  H   -0.000007   0.000005  -0.000110  -0.071801   0.423250  -0.004174
    34  H    0.000171   0.000065  -0.000314  -0.114038   0.457919   0.003503
    35  C   -0.010018  -0.008127  -0.000792   0.545017  -0.204211   0.070866
    36  O   -0.000151   0.000215   0.000259  -0.024359   0.016461  -0.001933
    37  O    0.000017   0.000036  -0.000019  -0.021567   0.008632  -0.002525
    38  C   -0.000151  -0.000137   0.000028   0.055582   0.006931   0.001079
    39  H   -0.000000   0.000000  -0.000000  -0.001189  -0.000093  -0.000000
    40  H   -0.000000  -0.000000  -0.000000   0.006605   0.000490   0.000002
    41  H    0.000000   0.000000   0.000000  -0.002372  -0.000068  -0.000000
              31         32         33         34         35         36
     1  C   -0.005939   0.019159   0.016051   0.009234  -0.836911   0.065048
     2  C   -0.010029  -0.000560   0.000743  -0.004026  -0.396021  -0.072250
     3  C   -0.045002  -0.006945   0.001683  -0.001531  -0.659481  -0.210167
     4  H    0.000001  -0.000000   0.000000  -0.000000   0.014559  -0.000319
     5  H    0.000195   0.000001   0.000003  -0.000004   0.061574   0.002775
     6  C    0.002587   0.000065  -0.000393  -0.000642  -1.441923   0.008017
     7  H   -0.000017   0.000000   0.000000   0.000000   0.049677  -0.001644
     8  C    0.000226  -0.000007   0.000006   0.000013  -0.097180   0.023653
     9  C    0.000461   0.000002   0.000012  -0.000066  -0.007711  -0.006560
    10  C   -0.000443  -0.000002  -0.000025   0.000007  -0.148951  -0.000388
    11  C    0.000044   0.000000   0.000001  -0.000005   0.016730  -0.004494
    12  H   -0.000000  -0.000000   0.000000  -0.000000   0.001161  -0.000015
    13  C   -0.000037  -0.000000  -0.000001  -0.000000  -0.127270  -0.001134
    14  H   -0.000000   0.000000   0.000000  -0.000000  -0.004315   0.000008
    15  C    0.000001  -0.000000  -0.000000   0.000000   0.006444  -0.000031
    16  H   -0.000000  -0.000000  -0.000000  -0.000000  -0.000003  -0.000000
    17  H   -0.000000  -0.000000   0.000000  -0.000000   0.000036  -0.000000
    18  H    0.000000   0.000000   0.000000  -0.000000  -0.000000   0.000000
    19  C    0.008771   0.011577  -0.004897  -0.002270  -0.930967  -0.014526
    20  H   -0.000098   0.000088  -0.002549   0.000240  -0.005277  -0.000001
    21  H    0.000022  -0.000012  -0.000218   0.000131   0.012511  -0.000056
    22  H   -0.000096  -0.000002   0.000091  -0.000002  -0.006581  -0.000070
    23  F   -0.012019  -0.000229  -0.001670   0.008964  -0.032072   0.000926
    24  B    0.000019   0.000449   0.000165  -0.001502   0.012288  -0.000828
    25  F   -0.000047  -0.000001  -0.000007   0.000171  -0.010018  -0.000151
    26  F   -0.000066   0.000001   0.000005   0.000065  -0.008127   0.000215
    27  F    0.000104   0.000175  -0.000110  -0.000314  -0.000792   0.000259
    28  C    0.387263  -0.120004  -0.071801  -0.114038   0.545017  -0.024359
    29  C    0.013969   0.468742   0.423250   0.457919  -0.204211   0.016461
    30  H   -0.022647  -0.002893  -0.004174   0.003503   0.070866  -0.001933
    31  H    0.480183  -0.003760   0.003399  -0.002715  -0.016989   0.004972
    32  H   -0.003760   0.504628  -0.023962  -0.022737  -0.005718   0.000044
    33  H    0.003399  -0.023962   0.514760  -0.026356  -0.001445  -0.000022
    34  H   -0.002715  -0.022737  -0.026356   0.494552   0.008369  -0.000118
    35  C   -0.016989  -0.005718  -0.001445   0.008369   9.351991   0.806387
    36  O    0.004972   0.000044  -0.000022  -0.000118   0.806387   7.999576
    37  O    0.001448   0.000015   0.000011  -0.000017   0.206188  -0.184177
    38  C    0.000873   0.000007  -0.000021   0.000059  -0.058624  -0.009789
    39  H   -0.000000  -0.000000   0.000000  -0.000000   0.043979   0.000437
    40  H    0.000027   0.000000  -0.000000  -0.000000  -0.022884   0.000611
    41  H   -0.000002   0.000000   0.000000  -0.000000  -0.031242   0.004011
              37         38         39         40         41
     1  C    0.071871  -0.029035   0.000993  -0.011694   0.005104
     2  C   -0.169873  -0.079912  -0.000043   0.000795   0.001228
     3  C   -0.223583  -0.145304  -0.018212   0.008761   0.002410
     4  H   -0.000591  -0.001325   0.000000   0.000000  -0.000002
     5  H   -0.002527   0.005894  -0.000032   0.000007   0.000001
     6  C    0.142979   0.032776  -0.001662   0.002587   0.001645
     7  H   -0.001312  -0.001284   0.000000  -0.000002  -0.000018
     8  C    0.000806   0.008656   0.000239   0.000132  -0.000737
     9  C    0.006077   0.007191   0.000114  -0.000004  -0.000191
    10  C    0.003864  -0.002328  -0.000328   0.000210  -0.000493
    11  C    0.000019   0.000700  -0.000003   0.000005   0.000002
    12  H    0.000001   0.000013  -0.000000  -0.000000   0.000000
    13  C   -0.000939  -0.007004  -0.000041   0.000015  -0.000157
    14  H   -0.000029   0.000011   0.000000  -0.000000   0.000000
    15  C    0.000113   0.000944   0.000001  -0.000000  -0.000003
    16  H   -0.000000  -0.000000   0.000000   0.000000  -0.000000
    17  H    0.000000  -0.000001   0.000000   0.000000  -0.000000
    18  H    0.000000  -0.000000  -0.000000  -0.000000   0.000000
    19  C    0.005185  -0.037202   0.000026  -0.000849   0.000633
    20  H    0.000009  -0.000008   0.000000  -0.000000   0.000000
    21  H   -0.000053  -0.000048   0.000000  -0.000000   0.000000
    22  H   -0.000046  -0.000131  -0.000000  -0.000000   0.000000
    23  F    0.001542   0.000937  -0.000000  -0.000003   0.000006
    24  B    0.000153   0.000499   0.000006   0.000020  -0.000027
    25  F    0.000017  -0.000151  -0.000000  -0.000000   0.000000
    26  F    0.000036  -0.000137   0.000000  -0.000000   0.000000
    27  F   -0.000019   0.000028  -0.000000  -0.000000   0.000000
    28  C   -0.021567   0.055582  -0.001189   0.006605  -0.002372
    29  C    0.008632   0.006931  -0.000093   0.000490  -0.000068
    30  H   -0.002525   0.001079  -0.000000   0.000002  -0.000000
    31  H    0.001448   0.000873  -0.000000   0.000027  -0.000002
    32  H    0.000015   0.000007  -0.000000   0.000000   0.000000
    33  H    0.000011  -0.000021   0.000000  -0.000000   0.000000
    34  H   -0.000017   0.000059  -0.000000  -0.000000  -0.000000
    35  C    0.206188  -0.058624   0.043979  -0.022884  -0.031242
    36  O   -0.184177  -0.009789   0.000437   0.000611   0.004011
    37  O    8.341685   0.103864  -0.064315  -0.033035  -0.031691
    38  C    0.103864   5.115009   0.406880   0.413878   0.417748
    39  H   -0.064315   0.406880   0.496500  -0.024952  -0.024365
    40  H   -0.033035   0.413878  -0.024952   0.499152  -0.029242
    41  H   -0.031691   0.417748  -0.024365  -0.029242   0.497327
 Mulliken charges:
               1
     1  C   -0.261581
     2  C    0.063094
     3  C   -0.110190
     4  H    0.183239
     5  H    0.245028
     6  C   -0.098602
     7  H    0.169618
     8  C    0.105343
     9  C   -0.231148
    10  C    0.071818
    11  C   -0.199940
    12  H    0.181869
    13  C   -0.435639
    14  H    0.173872
    15  C   -0.216486
    16  H    0.188016
    17  H    0.186202
    18  H    0.185865
    19  C   -0.378686
    20  H    0.226301
    21  H    0.228306
    22  H    0.220664
    23  F   -0.406879
    24  B    1.522001
    25  F   -0.547482
    26  F   -0.514424
    27  F   -0.558337
    28  C    0.096358
    29  C   -0.721983
    30  H    0.218960
    31  H    0.215343
    32  H    0.181877
    33  H    0.177472
    34  H    0.193116
    35  C   -0.153065
    36  O   -0.400371
    37  O   -0.158218
    38  C   -0.207256
    39  H    0.186062
    40  H    0.189368
    41  H    0.190494
 Sum of Mulliken charges =  -0.00000
 Mulliken charges with hydrogens summed into heavy atoms:
               1
     1  C   -0.261581
     2  C    0.246334
     3  C    0.134838
     6  C    0.071016
     8  C    0.105343
     9  C   -0.049279
    10  C    0.245690
    11  C   -0.011924
    13  C   -0.249437
    15  C   -0.030621
    19  C    0.296585
    23  F   -0.406879
    24  B    1.522001
    25  F   -0.547482
    26  F   -0.514424
    27  F   -0.558337
    28  C    0.530661
    29  C   -0.169517
    35  C   -0.153065
    36  O   -0.400371
    37  O   -0.158218
    38  C    0.358668
 Electronic spatial extent (au):  <R**2>=           7414.0723
 Charge=             -0.0000 electrons
 Dipole moment (field-independent basis, Debye):
    X=              3.2350    Y=              8.6811    Z=              6.6368  Tot=             11.3962
 Quadrupole moment (field-independent basis, Debye-Ang):
   XX=           -104.6749   YY=           -134.2761   ZZ=           -122.3122
   XY=             10.6522   XZ=              9.6798   YZ=             -4.3143
 Traceless Quadrupole moment (field-independent basis, Debye-Ang):
   XX=             15.7462   YY=            -13.8550   ZZ=             -1.8912
   XY=             10.6522   XZ=              9.6798   YZ=             -4.3143
 Octapole moment (field-independent basis, Debye-Ang**2):
  XXX=             33.1636  YYY=            102.6043  ZZZ=             20.0658  XYY=             33.7564
  XXY=             -6.9933  XXZ=             20.4637  XZZ=              7.0466  YZZ=              1.5128
  YYZ=            -14.3434  XYZ=            -23.3578
 Hexadecapole moment (field-independent basis, Debye-Ang**3):
 XXXX=          -5207.5475 YYYY=          -2528.4633 ZZZZ=           -929.4096 XXXY=            134.0930
 XXXZ=            -27.2975 YYYX=            181.0095 YYYZ=           -128.9019 ZZZX=             23.2813
 ZZZY=             20.1085 XXYY=          -1498.3285 XXZZ=          -1054.4139 YYZZ=           -619.3411
 XXYZ=             53.1034 YYXZ=            -10.7099 ZZXY=             -9.3934
 N-N= 1.933931529257D+03 E-N=-6.581135310793D+03  KE= 1.147655760115D+03
 No NMR shielding tensors so no spin-rotation constants.
 Leave Link  601 at Mon Sep  5 06:59:28 2022, MaxMem=  2684354560 cpu:               1.7 elap:               0.3
 (Enter /afs/cad/linux/gaussian/g16_C.01/AVX2/g16/l9999.exe)
 Unable to Open any file for archive entry.
 1\1\GINC-NODE723\FOpt\RwB97XD\6-31+G(d,p)\C15H19B1F4O2\SPL29\05-Sep-20
 22\0\\#p opt=modredundant wb97xd/6-31+g(d,p) scrf=(smd,solvent=dichlor
 omethane)\\1u_class_min_conf-9\\0,1\C,1.3891913924,-0.0857567999,-0.55
 56872195\C,-0.9262903916,-1.1783513363,-0.3794153889\C,0.558893311,-1.
 2682758663,-0.0732852213\H,-1.2289945974,-1.6014170227,-1.3331645638\H
 ,0.9643218621,-2.0919383229,-0.6742457111\C,-1.8209610389,-0.611607909
 8,0.4352627358\H,-1.4789636549,-0.1624974803,1.3662111032\C,-3.2669904
 955,-0.4890484738,0.1765673013\C,-3.9985882214,0.4574406603,0.90694470
 41\C,-3.9432139192,-1.2764310689,-0.767351503\C,-5.3633478764,0.630159
 1478,0.6876984946\H,-3.4865775329,1.0697772374,1.6447252612\C,-5.30700
 49718,-1.1063358167,-0.9843767602\H,-3.4065651992,-2.0372597452,-1.326
 5679323\C,-6.0221729931,-0.1506209252,-0.2604380655\H,-5.9111931919,1.
 3738742175,1.2585696912\H,-5.8160557759,-1.7266746822,-1.7162120869\H,
 -7.0868154432,-0.0216176448,-0.430829336\C,1.1784916608,0.2757345933,-
 1.9895270487\H,1.5980867044,1.2540099386,-2.2230403826\H,1.7275377496,
 -0.4719914771,-2.5748901908\H,0.1281389989,0.2454584856,-2.2752629528\
 F,0.6723635331,1.2115750029,0.3036193773\B,0.0102188578,2.5727156322,-
 0.1118184989\F,-0.5157701074,3.0178613568,1.0757094997\F,-0.9359959032
 ,2.2818659067,-1.0616687365\F,1.039432902,3.351080954,-0.5877894897\C,
 2.796682716,-0.0240846545,-0.0272530916\C,3.6788187912,1.097452809,-0.
 5622459957\H,3.2262231829,-1.0004083315,-0.2947068378\H,2.7571020124,0
 .0051991218,1.0635891868\H,4.650363258,1.0552906416,-0.0629293499\H,3.
 8523068869,1.0067387838,-1.6378953074\H,3.2380281876,2.0772778868,-0.3
 62278043\C,0.7706149901,-1.6519018371,1.3859633005\O,0.8008180088,-0.8
 860201245,2.3243080792\O,0.8668464967,-2.9761709102,1.5053920062\C,0.9
 577270079,-3.4904500298,2.8444644546\H,1.0126843282,-4.5723823695,2.73
 54639025\H,1.8556504279,-3.1113110802,3.3367578311\H,0.0713213574,-3.2
 098020967,3.4174277844\\Version=ES64L-G16RevC.01\State=1-A\HF=-1157.64
 10375\RMSD=6.037e-09\RMSF=9.237e-04\Dipole=1.579232,-4.0569275,-1.0724
 951\Quadrupole=13.1647773,-12.4793502,-0.685427,-8.4942947,-3.2234155,
 0.2620061\PG=C01 [X(C15H19B1F4O2)]\\@
 The archive entry for this job was punched.


 TIME IS NATURE'S WAY OF MAKING SURE EVERYTHING
 DOESN'T HAPPEN AT ONCE.
                     - WOODY ALLEN
 Job cpu time:       0 days 11 hours 53 minutes  1.7 seconds.
 Elapsed time:       0 days  1 hours 29 minutes 37.4 seconds.
 File lengths (MBytes):  RWF=    430 Int=      0 D2E=      0 Chk=     27 Scr=      1
 Normal termination of Gaussian 16 at Mon Sep  5 06:59:28 2022.
