 Entering Gaussian System, Link 0=g16
 Input=tropone-pbe0-augccpvdz.gjf
 Output=tropone-pbe0-augccpvdz.log
 Initial command:
 /work/lopez//g16/l1.exe "/scratch/albano.b/tropone/gaussian-opt/tropone-pbe0-augccpvdz/Gau-54710.inp" -scrdir="/scratch/albano.b/tropone/gaussian-opt/tropone-pbe0-augccpvdz/"
 Entering Link 1 = /work/lopez//g16/l1.exe PID=     54711.
  
 Copyright (c) 1988-2017, Gaussian, Inc.  All Rights Reserved.
  
 This is part of the Gaussian(R) 16 program.  It is based on
 the Gaussian(R) 09 system (copyright 2009, Gaussian, Inc.),
 the Gaussian(R) 03 system (copyright 2003, Gaussian, Inc.),
 the Gaussian(R) 98 system (copyright 1998, Gaussian, Inc.),
 the Gaussian(R) 94 system (copyright 1995, Gaussian, Inc.),
 the Gaussian 92(TM) system (copyright 1992, Gaussian, Inc.),
 the Gaussian 90(TM) system (copyright 1990, Gaussian, Inc.),
 the Gaussian 88(TM) system (copyright 1988, Gaussian, Inc.),
 the Gaussian 86(TM) system (copyright 1986, Carnegie Mellon
 University), and the Gaussian 82(TM) system (copyright 1983,
 Carnegie Mellon University). Gaussian is a federally registered
 trademark of Gaussian, Inc.
  
 This software contains proprietary and confidential information,
 including trade secrets, belonging to Gaussian, Inc.
  
 This software is provided under written license and may be
 used, copied, transmitted, or stored only in accord with that
 written license.
  
 The following legend is applicable only to US Government
 contracts under FAR:
  
                    RESTRICTED RIGHTS LEGEND
  
 Use, reproduction and disclosure by the US Government is
 subject to restrictions as set forth in subparagraphs (a)
 and (c) of the Commercial Computer Software - Restricted
 Rights clause in FAR 52.227-19.
  
 Gaussian, Inc.
 340 Quinnipiac St., Bldg. 40, Wallingford CT 06492
  
  
 ---------------------------------------------------------------
 Warning -- This program may not be used in any manner that
 competes with the business of Gaussian, Inc. or will provide
 assistance to any competitor of Gaussian, Inc.  The licensee
 of this program is prohibited from giving any competitor of
 Gaussian, Inc. access to this program.  By using this program,
 the user acknowledges that Gaussian, Inc. is engaged in the
 business of creating and licensing software in the field of
 computational chemistry and represents and warrants to the
 licensee that it is not a competitor of Gaussian, Inc. and that
 it will not use this program in any manner prohibited above.
 ---------------------------------------------------------------
  

 Cite this work as:
 Gaussian 16, Revision B.01,
 M. J. Frisch, G. W. Trucks, H. B. Schlegel, G. E. Scuseria, 
 M. A. Robb, J. R. Cheeseman, G. Scalmani, V. Barone, 
 G. A. Petersson, H. Nakatsuji, X. Li, M. Caricato, A. V. Marenich, 
 J. Bloino, B. G. Janesko, R. Gomperts, B. Mennucci, H. P. Hratchian, 
 J. V. Ortiz, A. F. Izmaylov, J. L. Sonnenberg, D. Williams-Young, 
 F. Ding, F. Lipparini, F. Egidi, J. Goings, B. Peng, A. Petrone, 
 T. Henderson, D. Ranasinghe, V. G. Zakrzewski, J. Gao, N. Rega, 
 G. Zheng, W. Liang, M. Hada, M. Ehara, K. Toyota, R. Fukuda, 
 J. Hasegawa, M. Ishida, T. Nakajima, Y. Honda, O. Kitao, H. Nakai, 
 T. Vreven, K. Throssell, J. A. Montgomery, Jr., J. E. Peralta, 
 F. Ogliaro, M. J. Bearpark, J. J. Heyd, E. N. Brothers, K. N. Kudin, 
 V. N. Staroverov, T. A. Keith, R. Kobayashi, J. Normand, 
 K. Raghavachari, A. P. Rendell, J. C. Burant, S. S. Iyengar, 
 J. Tomasi, M. Cossi, J. M. Millam, M. Klene, C. Adamo, R. Cammi, 
 J. W. Ochterski, R. L. Martin, K. Morokuma, O. Farkas, 
 J. B. Foresman, and D. J. Fox, Gaussian, Inc., Wallingford CT, 2016.
 
 ******************************************
 Gaussian 16:  ES64L-G16RevB.01 20-Dec-2017
                24-Nov-2023 
 ******************************************
 %nprocshared=16
 Will use up to   16 processors via shared memory.
 %mem=5GB
 %chk=tropone-pbe0-augccpvdz
 ----------------------
 # opt pbe0/aug-cc-pvdz
 ----------------------
 1/18=20,19=15,38=1/1,3;
 2/9=110,12=2,17=6,18=5,40=1/2;
 3/5=16,7=10,11=9,25=1,30=1,71=1,74=-78/1,2,3;
 4//1;
 5/5=2,38=5/2;
 8/6=4,10=1/1;
 9/15=2,16=-3/6;
 10/5=1/2;
 6/7=2,8=2,9=2,10=2/1;
 7/12=2/1,2,3,16;
 1/18=20,19=15/3(2);
 2/9=110/2;
 99//99;
 2/9=110/2;
 3/5=16,7=10,11=9,25=1,30=1,71=1,74=-78/1,2,3;
 4/5=5,16=3,69=1/1;
 5/5=2,38=5/2;
 8/6=4,10=1/1;
 9/15=2,16=-3/6;
 10/5=1/2;
 7/12=2/1,2,3,16;
 1/18=20,19=15/3(-8);
 2/9=110/2;
 6/7=2,8=2,9=2,10=2/1;
 99/9=10/99;
 ---------------------
 tropone-pbe0-auccpvdz
 ---------------------
 Symbolic Z-matrix:
 Charge =  0 Multiplicity = 1
 C                     0.04011  -1.12299   0. 
 C                     1.38656  -1.12299   0. 
 C                     2.23692   0.04235   0. 
 C                    -0.8103    0.04229   0.00035 
 C                     1.94492   1.23089   0.55002 
 C                    -0.51829   1.23082   0.55044 
 H                    -0.49594  -2.08816  -0.05144 
 H                     1.92265  -2.08814  -0.05133 
 H                     3.20807  -0.09485  -0.50962 
 H                    -1.78156  -0.09491  -0.50907 
 H                     2.65615   2.06844   0.46066 
 H                    -1.22967   2.06829   0.46148 
 O                     0.71351   2.8914    1.73445 
 C                     0.71345   1.52135   1.32475 
 

 GradGradGradGradGradGradGradGradGradGradGradGradGradGradGradGradGradGrad
 Berny optimization.
 Initialization pass.
                           ----------------------------
                           !    Initial Parameters    !
                           ! (Angstroms and Degrees)  !
 --------------------------                            --------------------------
 ! Name  Definition              Value          Derivative Info.                !
 --------------------------------------------------------------------------------
 ! R1    R(1,2)                  1.3465         estimate D2E/DX2                !
 ! R2    R(1,4)                  1.4426         estimate D2E/DX2                !
 ! R3    R(1,7)                  1.1052         estimate D2E/DX2                !
 ! R4    R(2,3)                  1.4426         estimate D2E/DX2                !
 ! R5    R(2,8)                  1.1052         estimate D2E/DX2                !
 ! R6    R(3,5)                  1.3418         estimate D2E/DX2                !
 ! R7    R(3,9)                  1.1053         estimate D2E/DX2                !
 ! R8    R(4,6)                  1.3418         estimate D2E/DX2                !
 ! R9    R(4,10)                 1.1053         estimate D2E/DX2                !
 ! R10   R(5,11)                 1.1024         estimate D2E/DX2                !
 ! R11   R(5,14)                 1.4836         estimate D2E/DX2                !
 ! R12   R(6,12)                 1.1024         estimate D2E/DX2                !
 ! R13   R(6,14)                 1.4836         estimate D2E/DX2                !
 ! R14   R(13,14)                1.43           estimate D2E/DX2                !
 ! A1    A(2,1,4)              126.1214         estimate D2E/DX2                !
 ! A2    A(2,1,7)              119.013          estimate D2E/DX2                !
 ! A3    A(4,1,7)              114.8031         estimate D2E/DX2                !
 ! A4    A(1,2,3)              126.1186         estimate D2E/DX2                !
 ! A5    A(1,2,8)              119.0158         estimate D2E/DX2                !
 ! A6    A(3,2,8)              114.8026         estimate D2E/DX2                !
 ! A7    A(2,3,5)              125.9625         estimate D2E/DX2                !
 ! A8    A(2,3,9)              114.6863         estimate D2E/DX2                !
 ! A9    A(5,3,9)              119.3512         estimate D2E/DX2                !
 ! A10   A(1,4,6)              125.966          estimate D2E/DX2                !
 ! A11   A(1,4,10)             114.6851         estimate D2E/DX2                !
 ! A12   A(6,4,10)             119.3489         estimate D2E/DX2                !
 ! A13   A(3,5,11)             119.9564         estimate D2E/DX2                !
 ! A14   A(3,5,14)             124.6182         estimate D2E/DX2                !
 ! A15   A(11,5,14)            115.4104         estimate D2E/DX2                !
 ! A16   A(4,6,12)             119.9586         estimate D2E/DX2                !
 ! A17   A(4,6,14)             124.6166         estimate D2E/DX2                !
 ! A18   A(12,6,14)            115.4098         estimate D2E/DX2                !
 ! A19   A(5,14,6)             112.2257         estimate D2E/DX2                !
 ! A20   A(5,14,13)            109.7029         estimate D2E/DX2                !
 ! A21   A(6,14,13)            109.7049         estimate D2E/DX2                !
 ! D1    D(4,1,2,3)             -0.017          estimate D2E/DX2                !
 ! D2    D(4,1,2,8)           -176.9726         estimate D2E/DX2                !
 ! D3    D(7,1,2,3)            176.949          estimate D2E/DX2                !
 ! D4    D(7,1,2,8)             -0.0065         estimate D2E/DX2                !
 ! D5    D(2,1,4,6)            -30.4106         estimate D2E/DX2                !
 ! D6    D(2,1,4,10)           149.5228         estimate D2E/DX2                !
 ! D7    D(7,1,4,6)            152.5122         estimate D2E/DX2                !
 ! D8    D(7,1,4,10)           -27.5545         estimate D2E/DX2                !
 ! D9    D(1,2,3,5)             30.4267         estimate D2E/DX2                !
 ! D10   D(1,2,3,9)           -149.506          estimate D2E/DX2                !
 ! D11   D(8,2,3,5)           -152.5061         estimate D2E/DX2                !
 ! D12   D(8,2,3,9)             27.5613         estimate D2E/DX2                !
 ! D13   D(2,3,5,11)          -177.8329         estimate D2E/DX2                !
 ! D14   D(2,3,5,14)             3.641          estimate D2E/DX2                !
 ! D15   D(9,3,5,11)             2.0969         estimate D2E/DX2                !
 ! D16   D(9,3,5,14)          -176.4292         estimate D2E/DX2                !
 ! D17   D(1,4,6,12)           177.8432         estimate D2E/DX2                !
 ! D18   D(1,4,6,14)            -3.6299         estimate D2E/DX2                !
 ! D19   D(10,4,6,12)           -2.0874         estimate D2E/DX2                !
 ! D20   D(10,4,6,14)          176.4396         estimate D2E/DX2                !
 ! D21   D(3,5,14,6)           -56.398          estimate D2E/DX2                !
 ! D22   D(3,5,14,13)         -178.6211         estimate D2E/DX2                !
 ! D23   D(11,5,14,6)          125.0157         estimate D2E/DX2                !
 ! D24   D(11,5,14,13)           2.7926         estimate D2E/DX2                !
 ! D25   D(4,6,14,5)            56.3869         estimate D2E/DX2                !
 ! D26   D(4,6,14,13)          178.6089         estimate D2E/DX2                !
 ! D27   D(12,6,14,5)         -125.026          estimate D2E/DX2                !
 ! D28   D(12,6,14,13)          -2.804          estimate D2E/DX2                !
 --------------------------------------------------------------------------------
 Trust Radius=3.00D-01 FncErr=1.00D-07 GrdErr=1.00D-07 EigMax=2.50D+02 EigMin=1.00D-04
 Number of steps in this run=     73 maximum allowed number of steps=    100.
 GradGradGradGradGradGradGradGradGradGradGradGradGradGradGradGradGradGrad

                          Input orientation:                          
 ---------------------------------------------------------------------
 Center     Atomic      Atomic             Coordinates (Angstroms)
 Number     Number       Type             X           Y           Z
 ---------------------------------------------------------------------
      1          6           0        0.040107   -1.122995    0.000000
      2          6           0        1.386560   -1.122995    0.000000
      3          6           0        2.236925    0.042350    0.000000
      4          6           0       -0.810299    0.042290    0.000346
      5          6           0        1.944920    1.230894    0.550016
      6          6           0       -0.518293    1.230822    0.550435
      7          1           0       -0.495939   -2.088160   -0.051443
      8          1           0        1.922654   -2.088141   -0.051332
      9          1           0        3.208074   -0.094849   -0.509618
     10          1           0       -1.781561   -0.094915   -0.509066
     11          1           0        2.656146    2.068442    0.460659
     12          1           0       -1.229673    2.068287    0.461482
     13          8           0        0.713512    2.891400    1.734448
     14          6           0        0.713450    1.521347    1.324747
 ---------------------------------------------------------------------
                    Distance matrix (angstroms):
                    1          2          3          4          5
     1  C    0.000000
     2  C    1.346453   0.000000
     3  C    2.486773   1.442619   0.000000
     4  C    1.442595   2.486781   3.047224   0.000000
     5  C    3.077600   2.480943   1.341798   3.050598   0.000000
     6  C    2.480976   3.077645   3.050684   1.341817   2.463213
     7  H    1.105231   2.116127   3.465583   2.154141   4.163612
     8  H    2.116158   1.105232   2.154157   3.465608   3.373145
     9  H    3.369393   2.152837   1.105289   4.052924   2.115650
    10  H    2.152805   3.369434   4.052927   1.105294   4.094641
    11  H    4.152245   3.465447   2.119670   4.041463   1.102413
    12  H    3.465485   4.152339   4.041619   2.119713   3.284373
    13  O    4.424607   4.424553   3.666904   3.666952   2.382546
    14  C    3.033297   3.033245   2.502671   2.502690   1.483607
                    6          7          8          9         10
     6  C    0.000000
     7  H    3.373188   0.000000
     8  H    4.163636   2.418593   0.000000
     9  H    4.094744   4.231185   2.415687   0.000000
    10  H    2.115648   2.415630   4.231274   4.989635   0.000000
    11  H    3.284316   5.241682   4.251744   2.434315   5.031275
    12  H    1.102416   4.251765   5.241759   5.031480   2.434335
    13  O    2.382593   5.426619   5.426496   4.491809   4.491862
    14  C    1.483629   4.047847   4.047737   3.492869   3.492886
                   11         12         13         14
    11  H    0.000000
    12  H    3.885819   0.000000
    13  O    2.464472   2.464534   0.000000
    14  C    2.195456   2.195472   1.430000   0.000000
 Stoichiometry    C7H6O
 Framework group  C1[X(C7H6O)]
 Deg. of freedom    36
 Full point group                 C1      NOp   1
 Largest Abelian subgroup         C1      NOp   1
 Largest concise Abelian subgroup C1      NOp   1
                         Standard orientation:                         
 ---------------------------------------------------------------------
 Center     Atomic      Atomic             Coordinates (Angstroms)
 Number     Number       Type             X           Y           Z
 ---------------------------------------------------------------------
      1          6           0        1.785674    0.673207   -0.220353
      2          6           0        1.785622   -0.673246   -0.220509
      3          6           0        0.715349   -1.523623    0.240492
      4          6           0        0.715384    1.523601    0.240505
      5          6           0       -0.593815   -1.231564    0.205677
      6          6           0       -0.593820    1.231650    0.205550
      7          1           0        2.692447    1.209257   -0.554940
      8          1           0        2.692293   -1.209336   -0.555315
      9          1           0        1.042958   -2.494833    0.654121
     10          1           0        1.042992    2.494802    0.654168
     11          1           0       -1.327682   -1.942809    0.619058
     12          1           0       -1.327715    1.943010    0.618692
     13          8           0       -2.587412   -0.000029   -0.224925
     14          6           0       -1.167060   -0.000002   -0.390759
 ---------------------------------------------------------------------
 Rotational constants (GHZ):           3.7574254           2.0273123           1.3771320
 Standard basis: Aug-CC-pVDZ (5D, 7F)
 There are   254 symmetry adapted cartesian basis functions of A   symmetry.
 There are   238 symmetry adapted basis functions of A   symmetry.
   238 basis functions,   410 primitive gaussians,   254 cartesian basis functions
    28 alpha electrons       28 beta electrons
       nuclear repulsion energy       321.0345018287 Hartrees.
 NAtoms=   14 NActive=   14 NUniq=   14 SFac= 1.00D+00 NAtFMM=   60 NAOKFM=F Big=F
 Integral buffers will be    131072 words long.
 Regular integral format.
 Two-electron integral symmetry is turned on.
 One-electron integrals computed using PRISM.
 NBasis=   238 RedAO= T EigKep=  6.36D-06  NBF=   238
 NBsUse=   238 1.00D-06 EigRej= -1.00D+00 NBFU=   238
 ExpMin= 2.97D-02 ExpMax= 1.17D+04 ExpMxC= 4.01D+02 IAcc=3 IRadAn=         5 AccDes= 0.00D+00
 Harris functional with IExCor= 1009 and IRadAn=       5 diagonalized for initial guess.
 HarFok:  IExCor= 1009 AccDes= 0.00D+00 IRadAn=         5 IDoV= 1 UseB2=F ITyADJ=14
 ICtDFT=  3500011 ScaDFX=  1.000000  1.000000  1.000000  1.000000
 FoFCou: FMM=F IPFlag=           0 FMFlag=      100000 FMFlg1=           0
         NFxFlg=           0 DoJE=T BraDBF=F KetDBF=T FulRan=T
         wScrn=  0.000000 ICntrl=       500 IOpCl=  0 I1Cent=   200000004 NGrid=           0
         NMat0=    1 NMatS0=      1 NMatT0=    0 NMatD0=    1 NMtDS0=    0 NMtDT0=    0
 Petite list used in FoFCou.
 Requested convergence on RMS density matrix=1.00D-08 within 128 cycles.
 Requested convergence on MAX density matrix=1.00D-06.
 Requested convergence on             energy=1.00D-06.
 No special actions if energy rises.
 SCF Done:  E(RPBE0DH) =  -344.880348093     A.U. after   15 cycles
            NFock= 15  Conv=0.69D-08     -V/T= 2.0065
 DoSCS=T DFT=T ScalE2(SS,OS)=  0.125000  0.125000
 ExpMin= 2.97D-02 ExpMax= 1.17D+04 ExpMxC= 4.01D+02 IAcc=3 IRadAn=         5 AccDes= 0.00D+00
 HarFok:  IExCor=  205 AccDes= 0.00D+00 IRadAn=         5 IDoV=-2 UseB2=F ITyADJ=14
 ICtDFT= 12500011 ScaDFX=  1.000000  1.000000  1.000000  1.000000
 Range of M.O.s used for correlation:     9   238
 NBasis=   238 NAE=    28 NBE=    28 NFC=     8 NFV=     0
 NROrb=    230 NOA=    20 NOB=    20 NVA=   210 NVB=   210

 **** Warning!!: The largest alpha MO coefficient is  0.70336628D+02

 DoSCS=T DFT=T ScalE2(SS,OS)=  0.125000  0.125000
 Disk-based method using ON**2 memory for 20 occupieds at a time.
 Estimated scratch disk usage=   680152144 words.
 Actual    scratch disk usage=   571493456 words.
 JobTyp=1 Pass  1:  I=   9 to  28 NPSUse= 16 ParTrn=T ParDer=T DoDerP=T.
 (rs|ai) integrals will be sorted in core.
 Spin components of T(2) and E(2):
     alpha-alpha T2 =       0.1041501455D+00 E2=     -0.2476822666D-01
     alpha-beta  T2 =       0.5702692642D+00 E2=     -0.1356489492D+00
     beta-beta   T2 =       0.1041501455D+00 E2=     -0.2476822666D-01
 E2(PBE0DH) =    -0.1851854025D+00 E(PBE0DH) =    -0.34506553349572D+03
          IDoAtm=11111111111111
          Differentiating once with respect to electric field.
                with respect to dipole field.
          Differentiating once with respect to nuclear coordinates.
 Keep R1 ints in memory in canonical form, NReq=421823599.
          There are     1 degrees of freedom in the 1st order CPHF.  IDoFFX=0 NUNeed=     1.
 LinEq1:  Iter=  0 NonCon=     1 RMS=1.17D-03 Max=4.99D-02 NDo=     1
 AX will form     1 AO Fock derivatives at one time.
 LinEq1:  Iter=  1 NonCon=     1 RMS=8.04D-04 Max=3.59D-02 NDo=     1
 LinEq1:  Iter=  2 NonCon=     1 RMS=3.25D-04 Max=8.64D-03 NDo=     1
 LinEq1:  Iter=  3 NonCon=     1 RMS=1.63D-04 Max=3.57D-03 NDo=     1
 LinEq1:  Iter=  4 NonCon=     1 RMS=6.42D-05 Max=1.35D-03 NDo=     1
 LinEq1:  Iter=  5 NonCon=     1 RMS=2.78D-05 Max=6.85D-04 NDo=     1
 LinEq1:  Iter=  6 NonCon=     1 RMS=1.54D-05 Max=3.24D-04 NDo=     1
 LinEq1:  Iter=  7 NonCon=     1 RMS=6.68D-06 Max=2.28D-04 NDo=     1
 LinEq1:  Iter=  8 NonCon=     1 RMS=3.54D-06 Max=8.77D-05 NDo=     1
 LinEq1:  Iter=  9 NonCon=     1 RMS=1.15D-06 Max=2.33D-05 NDo=     1
 LinEq1:  Iter= 10 NonCon=     1 RMS=2.69D-07 Max=3.85D-06 NDo=     1
 LinEq1:  Iter= 11 NonCon=     1 RMS=1.02D-07 Max=1.74D-06 NDo=     1
 LinEq1:  Iter= 12 NonCon=     1 RMS=4.02D-08 Max=4.92D-07 NDo=     1
 LinEq1:  Iter= 13 NonCon=     1 RMS=1.14D-08 Max=2.05D-07 NDo=     1
 LinEq1:  Iter= 14 NonCon=     1 RMS=3.40D-09 Max=5.46D-08 NDo=     1
 LinEq1:  Iter= 15 NonCon=     1 RMS=1.12D-09 Max=1.53D-08 NDo=     1
 LinEq1:  Iter= 16 NonCon=     1 RMS=4.00D-10 Max=8.57D-09 NDo=     1
 LinEq1:  Iter= 17 NonCon=     1 RMS=2.42D-10 Max=5.18D-09 NDo=     1
 LinEq1:  Iter= 18 NonCon=     1 RMS=8.19D-11 Max=1.63D-09 NDo=     1
 LinEq1:  Iter= 19 NonCon=     0 RMS=1.68D-11 Max=4.25D-10 NDo=     1
 Linear equations converged to 1.000D-10 1.000D-09 after    19 iterations.
 End of Minotr F.D. properties file   721 does not exist.
 End of Minotr F.D. properties file   722 does not exist.
 End of Minotr F.D. properties file   788 does not exist.

 **********************************************************************

            Population analysis using the SCF Density.

 **********************************************************************

 Orbital symmetries:
       Occupied  (A) (A) (A) (A) (A) (A) (A) (A) (A) (A) (A) (A)
                 (A) (A) (A) (A) (A) (A) (A) (A) (A) (A) (A) (A)
                 (A) (A) (A) (A)
       Virtual   (A) (A) (A) (A) (A) (A) (A) (A) (A) (A) (A) (A)
                 (A) (A) (A) (A) (A) (A) (A) (A) (A) (A) (A) (A)
                 (A) (A) (A) (A) (A) (A) (A) (A) (A) (A) (A) (A)
                 (A) (A) (A) (A) (A) (A) (A) (A) (A) (A) (A) (A)
                 (A) (A) (A) (A) (A) (A) (A) (A) (A) (A) (A) (A)
                 (A) (A) (A) (A) (A) (A) (A) (A) (A) (A) (A) (A)
                 (A) (A) (A) (A) (A) (A) (A) (A) (A) (A) (A) (A)
                 (A) (A) (A) (A) (A) (A) (A) (A) (A) (A) (A) (A)
                 (A) (A) (A) (A) (A) (A) (A) (A) (A) (A) (A) (A)
                 (A) (A) (A) (A) (A) (A) (A) (A) (A) (A) (A) (A)
                 (A) (A) (A) (A) (A) (A) (A) (A) (A) (A) (A) (A)
                 (A) (A) (A) (A) (A) (A) (A) (A) (A) (A) (A) (A)
                 (A) (A) (A) (A) (A) (A) (A) (A) (A) (A) (A) (A)
                 (A) (A) (A) (A) (A) (A) (A) (A) (A) (A) (A) (A)
                 (A) (A) (A) (A) (A) (A) (A) (A) (A) (A) (A) (A)
                 (A) (A) (A) (A) (A) (A) (A) (A) (A) (A) (A) (A)
                 (A) (A) (A) (A) (A) (A) (A) (A) (A) (A) (A) (A)
                 (A) (A) (A) (A) (A) (A)
 The electronic state is 1-A.
 Alpha  occ. eigenvalues --  -19.66168 -10.68459 -10.61350 -10.61348 -10.61194
 Alpha  occ. eigenvalues --  -10.61187 -10.61127 -10.61029  -1.08769  -0.98968
 Alpha  occ. eigenvalues --   -0.92048  -0.88877  -0.76396  -0.75758  -0.62784
 Alpha  occ. eigenvalues --   -0.62382  -0.60361  -0.54759  -0.52541  -0.48840
 Alpha  occ. eigenvalues --   -0.48568  -0.46540  -0.42718  -0.42299  -0.38158
 Alpha  occ. eigenvalues --   -0.34391  -0.32088  -0.29067
 Alpha virt. eigenvalues --   -0.07319  -0.03159   0.00492   0.01789   0.02508
 Alpha virt. eigenvalues --    0.04151   0.04177   0.06038   0.06210   0.06667
 Alpha virt. eigenvalues --    0.07913   0.08986   0.09589   0.10311   0.10420
 Alpha virt. eigenvalues --    0.10961   0.11261   0.11912   0.12134   0.12315
 Alpha virt. eigenvalues --    0.13615   0.13654   0.14034   0.14379   0.14831
 Alpha virt. eigenvalues --    0.15551   0.15981   0.16035   0.17693   0.17718
 Alpha virt. eigenvalues --    0.18849   0.20949   0.21678   0.21917   0.24217
 Alpha virt. eigenvalues --    0.24618   0.25056   0.25534   0.26559   0.26840
 Alpha virt. eigenvalues --    0.27325   0.28420   0.29064   0.30029   0.30175
 Alpha virt. eigenvalues --    0.31829   0.32518   0.32676   0.33165   0.34179
 Alpha virt. eigenvalues --    0.35047   0.35536   0.35741   0.36863   0.37852
 Alpha virt. eigenvalues --    0.39241   0.40484   0.42159   0.42470   0.42629
 Alpha virt. eigenvalues --    0.44023   0.45543   0.45851   0.47266   0.47358
 Alpha virt. eigenvalues --    0.49348   0.49641   0.49926   0.51109   0.51817
 Alpha virt. eigenvalues --    0.53651   0.54887   0.55695   0.57232   0.57907
 Alpha virt. eigenvalues --    0.58401   0.58405   0.59863   0.61441   0.61933
 Alpha virt. eigenvalues --    0.63075   0.63476   0.64874   0.65219   0.65970
 Alpha virt. eigenvalues --    0.66225   0.67535   0.68008   0.68221   0.70780
 Alpha virt. eigenvalues --    0.71438   0.72570   0.72948   0.73371   0.73815
 Alpha virt. eigenvalues --    0.74584   0.75376   0.77751   0.79279   0.79555
 Alpha virt. eigenvalues --    0.80667   0.82447   0.83338   0.83594   0.83916
 Alpha virt. eigenvalues --    0.88895   0.89019   0.92182   0.94062   0.94448
 Alpha virt. eigenvalues --    0.96378   0.97679   1.00157   1.00487   1.04041
 Alpha virt. eigenvalues --    1.05814   1.07816   1.11110   1.13451   1.15151
 Alpha virt. eigenvalues --    1.17629   1.21212   1.24008   1.26117   1.28328
 Alpha virt. eigenvalues --    1.31679   1.31843   1.33695   1.34899   1.35015
 Alpha virt. eigenvalues --    1.38208   1.40739   1.41925   1.44470   1.46215
 Alpha virt. eigenvalues --    1.47593   1.47797   1.49692   1.50252   1.52891
 Alpha virt. eigenvalues --    1.53490   1.54660   1.55274   1.57281   1.58070
 Alpha virt. eigenvalues --    1.58306   1.62204   1.65336   1.66427   1.66445
 Alpha virt. eigenvalues --    1.66893   1.70160   1.70613   1.72126   1.73169
 Alpha virt. eigenvalues --    1.76370   1.78685   1.80512   1.81685   1.82619
 Alpha virt. eigenvalues --    1.83406   1.86153   1.86424   1.88542   1.90516
 Alpha virt. eigenvalues --    1.93965   1.97121   1.97516   1.99048   2.00954
 Alpha virt. eigenvalues --    2.03108   2.05479   2.05998   2.09177   2.10644
 Alpha virt. eigenvalues --    2.11328   2.15167   2.16975   2.20232   2.22073
 Alpha virt. eigenvalues --    2.24141   2.26365   2.29734   2.30265   2.33412
 Alpha virt. eigenvalues --    2.37186   2.44033   2.46222   2.53777   2.58991
 Alpha virt. eigenvalues --    2.66024   2.66477   2.67266   2.68261   2.83966
 Alpha virt. eigenvalues --    2.87464   2.92989   2.95570   2.99187   3.04578
 Alpha virt. eigenvalues --    3.17551   3.21116   3.37492   3.46476   3.56474
 Alpha virt. eigenvalues --    3.59620   3.60991   3.68631   3.74724   3.97500
          Condensed to atoms (all electrons):
               1          2          3          4          5          6
     1  C    6.248137  -0.187701  -0.206078   0.336907  -0.080167  -0.359189
     2  C   -0.187701   6.248299   0.337409  -0.206129  -0.359132  -0.080269
     3  C   -0.206078   0.337409   6.262743  -0.497421  -0.131914   0.026874
     4  C    0.336907  -0.206129  -0.497421   6.262803   0.026914  -0.131649
     5  C   -0.080167  -0.359132  -0.131914   0.026914   5.837086  -0.199925
     6  C   -0.359189  -0.080269   0.026874  -0.131649  -0.199925   5.837255
     7  H   -0.149782   0.017045  -0.071190   0.035611  -0.009124   0.064847
     8  H    0.017202  -0.149662   0.035425  -0.071200   0.064803  -0.009113
     9  H    0.082752   0.182274  -0.110847   0.047166  -0.232889  -0.011822
    10  H    0.182393   0.082670   0.047175  -0.110917  -0.011843  -0.232938
    11  H   -0.025901  -0.019219   0.012771   0.031827   0.020708   0.031584
    12  H   -0.019094  -0.025892   0.031813   0.012825   0.031552   0.020712
    13  O   -0.004427  -0.004408  -0.035385  -0.035388   0.053191   0.053152
    14  C   -0.159525  -0.159404  -0.304883  -0.304837   0.284892   0.284849
               7          8          9         10         11         12
     1  C   -0.149782   0.017202   0.082752   0.182393  -0.025901  -0.019094
     2  C    0.017045  -0.149662   0.182274   0.082670  -0.019219  -0.025892
     3  C   -0.071190   0.035425  -0.110847   0.047175   0.012771   0.031813
     4  C    0.035611  -0.071200   0.047166  -0.110917   0.031827   0.012825
     5  C   -0.009124   0.064803  -0.232889  -0.011843   0.020708   0.031552
     6  C    0.064847  -0.009113  -0.011822  -0.232938   0.031584   0.020712
     7  H    1.749061  -0.094308  -0.004568  -0.098688  -0.000516   0.001033
     8  H   -0.094308   1.748955  -0.098673  -0.004573   0.001033  -0.000515
     9  H   -0.004568  -0.098673   1.728920   0.004471  -0.094906   0.000250
    10  H   -0.098688  -0.004573   0.004471   1.729028   0.000250  -0.094921
    11  H   -0.000516   0.001033  -0.094906   0.000250   1.561372   0.000317
    12  H    0.001033  -0.000515   0.000250  -0.094921   0.000317   1.561330
    13  O    0.000568   0.000568  -0.002128  -0.002129  -0.002063  -0.002055
    14  C    0.001038   0.001042  -0.051209  -0.051169  -0.099922  -0.100029
              13         14
     1  C   -0.004427  -0.159525
     2  C   -0.004408  -0.159404
     3  C   -0.035385  -0.304883
     4  C   -0.035388  -0.304837
     5  C    0.053191   0.284892
     6  C    0.053152   0.284849
     7  H    0.000568   0.001038
     8  H    0.000568   0.001042
     9  H   -0.002128  -0.051209
    10  H   -0.002129  -0.051169
    11  H   -0.002063  -0.099922
    12  H   -0.002055  -0.100029
    13  O    8.829912  -0.024330
    14  C   -0.024330   6.531211
 Mulliken charges:
               1
     1  C    0.324473
     2  C    0.324119
     3  C    0.603508
     4  C    0.603488
     5  C    0.705848
     6  C    0.705633
     7  H   -0.441027
     8  H   -0.440985
     9  H   -0.438789
    10  H   -0.438810
    11  H   -0.417334
    12  H   -0.417325
    13  O   -0.825077
    14  C    0.152277
 Sum of Mulliken charges =  -0.00000
 Mulliken charges with hydrogens summed into heavy atoms:
               1
     1  C   -0.116553
     2  C   -0.116867
     3  C    0.164720
     4  C    0.164678
     5  C    0.288514
     6  C    0.288308
    13  O   -0.825077
    14  C    0.152277
 Electronic spatial extent (au):  <R**2>=            857.1446
 Charge=             -0.0000 electrons
 Dipole moment (field-independent basis, Debye):
    X=              5.0137    Y=              0.0001    Z=              0.8424  Tot=              5.0839
 Quadrupole moment (field-independent basis, Debye-Ang):
   XX=            -55.1009   YY=            -39.2494   ZZ=            -48.2916
   XY=             -0.0006   XZ=             -3.2572   YZ=              0.0001
 Traceless Quadrupole moment (field-independent basis, Debye-Ang):
   XX=             -7.5536   YY=              8.2979   ZZ=             -0.7443
   XY=             -0.0006   XZ=             -3.2572   YZ=              0.0001
 Octapole moment (field-independent basis, Debye-Ang**2):
  XXX=             42.1954  YYY=              0.0004  ZZZ=             -0.1506  XYY=              2.5727
  XXY=              0.0015  XXZ=              1.8800  XZZ=             -3.8488  YZZ=             -0.0014
  YYZ=              8.4570  XYZ=              0.0017
 Hexadecapole moment (field-independent basis, Debye-Ang**3):
 XXXX=           -744.3339 YYYY=           -373.3437 ZZZZ=            -81.7952 XXXY=              0.0014
 XXXZ=            -31.1526 YYYX=             -0.0054 YYYZ=              0.0000 ZZZX=             -0.2274
 ZZZY=             -0.0001 XXYY=           -158.3686 XXZZ=           -126.7917 YYZZ=            -80.9934
 XXYZ=              0.0023 YYXZ=             -3.3921 ZZXY=             -0.0001
 N-N= 3.210345018287D+02 E-N=-1.444843320718D+03  KE= 3.426641504618D+02
 Calling FoFJK, ICntrl=  10002127 FMM=F ISym2X=0 I1Cent= 0 IOpClX= 0 NMat=1 NMatS=1 NMatT=0.
 ***** Axes restored to original set *****
 -------------------------------------------------------------------
 Center     Atomic                   Forces (Hartrees/Bohr)
 Number     Number              X              Y              Z
 -------------------------------------------------------------------
      1        6          -0.023788244   -0.006378723    0.004041297
      2        6           0.023805656   -0.006367027    0.004024703
      3        6           0.006882655   -0.022726238   -0.011116738
      4        6          -0.006900183   -0.022696986   -0.011128307
      5        6           0.000696446    0.001014000    0.029203769
      6        6          -0.000674012    0.000996875    0.029212721
      7        1           0.007781414    0.007753441   -0.003197170
      8        1          -0.007786438    0.007751868   -0.003206754
      9        1          -0.008115081    0.004070745    0.005071313
     10        1           0.008116702    0.004071622    0.005073526
     11        1          -0.007984613   -0.006876917    0.005469068
     12        1           0.007989813   -0.006879257    0.005458989
     13        8          -0.000004976   -0.140127273   -0.009930252
     14        6          -0.000019139    0.186393870   -0.048976166
 -------------------------------------------------------------------
 Cartesian Forces:  Max     0.186393870 RMS     0.038410486

 GradGradGradGradGradGradGradGradGradGradGradGradGradGradGradGradGradGrad
 Berny optimization.
 FormGI is forming the generalized inverse of G from B-inverse, IUseBI=4.
 Internal  Forces:  Max     0.137098047 RMS     0.019887780
 Search for a local minimum.
 Step number   1 out of a maximum of   73
 All quantities printed in internal units (Hartrees-Bohrs-Radians)
 Mixed Optimization -- RFO/linear search
 Second derivative matrix not updated -- first step.
 ITU=  0
     Eigenvalues ---    0.01599   0.01752   0.01891   0.02051   0.02161
     Eigenvalues ---    0.02220   0.02243   0.02367   0.02633   0.02951
     Eigenvalues ---    0.04943   0.15811   0.15979   0.15988   0.15996
     Eigenvalues ---    0.16000   0.16000   0.16030   0.20350   0.20791
     Eigenvalues ---    0.21855   0.22366   0.32837   0.33072   0.33103
     Eigenvalues ---    0.33104   0.33110   0.33110   0.33416   0.33417
     Eigenvalues ---    0.37508   0.38591   0.40989   0.53351   0.53980
     Eigenvalues ---    0.56742
 RFO step:  Lambda=-7.57500219D-02 EMin= 1.59925070D-02
 Linear search not attempted -- first point.
 Maximum step size (   0.300) exceeded in Quadratic search.
    -- Step size scaled by   0.821
 Iteration  1 RMS(Cart)=  0.04849912 RMS(Int)=  0.00922622
 Iteration  2 RMS(Cart)=  0.00948920 RMS(Int)=  0.00354120
 Iteration  3 RMS(Cart)=  0.00006684 RMS(Int)=  0.00354043
 Iteration  4 RMS(Cart)=  0.00000057 RMS(Int)=  0.00354043
 Variable       Old X    -DE/DX   Delta X   Delta X   Delta X     New X
                                 (Linear)    (Quad)   (Total)
    R1        2.54443   0.01219   0.00000   0.01734   0.01662   2.56105
    R2        2.72611  -0.00336   0.00000  -0.00465  -0.00509   2.72102
    R3        2.08858  -0.01040   0.00000  -0.02097  -0.02097   2.06761
    R4        2.72615  -0.00338   0.00000  -0.00468  -0.00511   2.72105
    R5        2.08859  -0.01040   0.00000  -0.02097  -0.02097   2.06761
    R6        2.53563   0.01800   0.00000   0.02262   0.02277   2.55840
    R7        2.08869  -0.00997   0.00000  -0.02012  -0.02012   2.06857
    R8        2.53567   0.01799   0.00000   0.02259   0.02275   2.55841
    R9        2.08870  -0.00998   0.00000  -0.02013  -0.02013   2.06858
   R10        2.08326  -0.01082   0.00000  -0.02166  -0.02166   2.06160
   R11        2.80361  -0.01474   0.00000  -0.03095  -0.03034   2.77328
   R12        2.08326  -0.01082   0.00000  -0.02167  -0.02167   2.06160
   R13        2.80365  -0.01476   0.00000  -0.03098  -0.03036   2.77329
   R14        2.70231  -0.13710   0.00000  -0.23168  -0.23168   2.47063
    A1        2.20123   0.00136   0.00000   0.01380   0.01136   2.21259
    A2        2.07717  -0.00364   0.00000  -0.01737  -0.01619   2.06098
    A3        2.00369   0.00240   0.00000   0.00394   0.00515   2.00884
    A4        2.20119   0.00136   0.00000   0.01381   0.01137   2.21255
    A5        2.07722  -0.00364   0.00000  -0.01739  -0.01621   2.06101
    A6        2.00368   0.00240   0.00000   0.00396   0.00516   2.00885
    A7        2.19846   0.00078   0.00000   0.01118   0.01058   2.20904
    A8        2.00165   0.00268   0.00000   0.00512   0.00541   2.00707
    A9        2.08307  -0.00347   0.00000  -0.01629  -0.01600   2.06707
   A10        2.19852   0.00078   0.00000   0.01115   0.01056   2.20908
   A11        2.00163   0.00269   0.00000   0.00513   0.00543   2.00706
   A12        2.08303  -0.00347   0.00000  -0.01629  -0.01599   2.06704
   A13        2.09363   0.00292   0.00000   0.00916   0.00888   2.10251
   A14        2.17500   0.00204   0.00000   0.00939   0.00985   2.18485
   A15        2.01429  -0.00489   0.00000  -0.01820  -0.01850   1.99579
   A16        2.09367   0.00291   0.00000   0.00914   0.00886   2.10253
   A17        2.17497   0.00205   0.00000   0.00941   0.00987   2.18484
   A18        2.01428  -0.00489   0.00000  -0.01820  -0.01850   1.99579
   A19        1.95871   0.01802   0.00000   0.09802   0.08827   2.04697
   A20        1.91468   0.01244   0.00000   0.09075   0.07382   1.98849
   A21        1.91471   0.01243   0.00000   0.09073   0.07379   1.98850
    D1       -0.00030   0.00000   0.00000   0.00004   0.00004  -0.00026
    D2       -3.08875  -0.00278   0.00000  -0.00919  -0.00845  -3.09721
    D3        3.08834   0.00279   0.00000   0.00925   0.00851   3.09686
    D4       -0.00011   0.00000   0.00000   0.00002   0.00002  -0.00009
    D5       -0.53076   0.00732   0.00000   0.04358   0.04276  -0.48801
    D6        2.60966   0.00756   0.00000   0.04612   0.04502   2.65468
    D7        2.66184   0.00480   0.00000   0.03529   0.03508   2.69692
    D8       -0.48092   0.00504   0.00000   0.03783   0.03734  -0.44358
    D9        0.53105  -0.00732   0.00000  -0.04363  -0.04280   0.48825
   D10       -2.60937  -0.00757   0.00000  -0.04615  -0.04504  -2.65441
   D11       -2.66173  -0.00480   0.00000  -0.03532  -0.03510  -2.69684
   D12        0.48104  -0.00505   0.00000  -0.03785  -0.03735   0.44369
   D13       -3.10377  -0.00485   0.00000  -0.03047  -0.02967  -3.13344
   D14        0.06355  -0.00808   0.00000  -0.04755  -0.04616   0.01738
   D15        0.03660  -0.00459   0.00000  -0.02783  -0.02734   0.00926
   D16       -3.07927  -0.00782   0.00000  -0.04491  -0.04384  -3.12311
   D17        3.10395   0.00485   0.00000   0.03047   0.02966   3.13361
   D18       -0.06335   0.00808   0.00000   0.04754   0.04615  -0.01721
   D19       -0.03643   0.00459   0.00000   0.02780   0.02732  -0.00912
   D20        3.07945   0.00781   0.00000   0.04487   0.04380   3.12325
   D21       -0.98433   0.01959   0.00000   0.13037   0.13352  -0.85081
   D22       -3.11753  -0.01736   0.00000  -0.11654  -0.11989   3.04577
   D23        2.18194   0.01640   0.00000   0.11364   0.11757   2.29951
   D24        0.04874  -0.02056   0.00000  -0.13327  -0.13583  -0.08709
   D25        0.98414  -0.01959   0.00000  -0.13034  -0.13349   0.85065
   D26        3.11731   0.01737   0.00000   0.11659   0.11993  -3.04594
   D27       -2.18212  -0.01640   0.00000  -0.11363  -0.11756  -2.29967
   D28       -0.04894   0.02056   0.00000   0.13330   0.13586   0.08693
         Item               Value     Threshold  Converged?
 Maximum Force            0.137098     0.000450     NO 
 RMS     Force            0.019888     0.000300     NO 
 Maximum Displacement     0.209676     0.001800     NO 
 RMS     Displacement     0.049295     0.001200     NO 
 Predicted change in Energy=-4.631640D-02
 GradGradGradGradGradGradGradGradGradGradGradGradGradGradGradGradGradGrad

                          Input orientation:                          
 ---------------------------------------------------------------------
 Center     Atomic      Atomic             Coordinates (Angstroms)
 Number     Number       Type             X           Y           Z
 ---------------------------------------------------------------------
      1          6           0        0.035711   -1.116642   -0.007419
      2          6           0        1.390959   -1.116639   -0.007442
      3          6           0        2.252896    0.036682    0.009046
      4          6           0       -0.826270    0.036626    0.009394
      5          6           0        1.966510    1.250217    0.536510
      6          6           0       -0.539868    1.250137    0.536923
      7          1           0       -0.479389   -2.080259   -0.064372
      8          1           0        1.906092   -2.080243   -0.064321
      9          1           0        3.232040   -0.110916   -0.457571
     10          1           0       -1.805523   -0.110978   -0.456997
     11          1           0        2.695008    2.060775    0.486911
     12          1           0       -1.268491    2.060606    0.487710
     13          8           0        0.713483    2.800949    1.738512
     14          6           0        0.713425    1.603467    1.213791
 ---------------------------------------------------------------------
                    Distance matrix (angstroms):
                    1          2          3          4          5
     1  C    0.000000
     2  C    1.355249   0.000000
     3  C    2.499267   1.439915   0.000000
     4  C    1.439903   2.499282   3.079166   0.000000
     5  C    3.102558   2.495827   1.353848   3.090351   0.000000
     6  C    2.495845   3.102588   3.090413   1.353854   2.506377
     7  H    1.094134   2.104758   3.457196   2.146386   4.175590
     8  H    2.104778   1.094134   2.146398   3.457220   3.384762
     9  H    3.380924   2.145617   1.094641   4.087751   2.107711
    10  H    2.145606   3.380969   4.087758   1.094644   4.131360
    11  H    4.172793   3.469998   2.126210   4.089571   1.090950
    12  H    3.470014   4.172857   4.089689   2.126226   3.335317
    13  O    4.342254   4.342215   3.605831   3.605852   2.328015
    14  C    3.057719   3.057686   2.505234   2.505239   1.467554
                    6          7          8          9         10
     6  C    0.000000
     7  H    3.384782   0.000000
     8  H    4.175601   2.385480   0.000000
     9  H    4.131437   4.219908   2.406457   0.000000
    10  H    2.107699   2.406420   4.219986   5.037563   0.000000
    11  H    3.335274   5.246796   4.251385   2.428310   5.085494
    12  H    1.090951   4.251381   5.246841   5.085651   2.428302
    13  O    2.328030   5.338495   5.338404   4.432253   4.432264
    14  C    1.467561   4.077542   4.077468   3.475051   3.475048
                   11         12         13         14
    11  H    0.000000
    12  H    3.963499   0.000000
    13  O    2.457804   2.457810   0.000000
    14  C    2.159665   2.159667   1.307400   0.000000
 Stoichiometry    C7H6O
 Framework group  C1[X(C7H6O)]
 Deg. of freedom    36
 Full point group                 C1      NOp   1
 Largest Abelian subgroup         C1      NOp   1
 Largest concise Abelian subgroup C1      NOp   1
                         Standard orientation:                         
 ---------------------------------------------------------------------
 Center     Atomic      Atomic             Coordinates (Angstroms)
 Number     Number       Type             X           Y           Z
 ---------------------------------------------------------------------
      1          6           0        1.778328    0.677621   -0.217493
      2          6           0        1.778298   -0.677628   -0.217632
      3          6           0        0.711575   -1.539588    0.221095
      4          6           0        0.711571    1.539578    0.221120
      5          6           0       -0.611609   -1.253165    0.213938
      6          6           0       -0.611630    1.253212    0.213825
      7          1           0        2.686582    1.192735   -0.544389
      8          1           0        2.686483   -1.192746   -0.544714
      9          1           0        1.030906   -2.518785    0.591825
     10          1           0        1.030872    2.518778    0.591873
     11          1           0       -1.337224   -1.981688    0.578508
     12          1           0       -1.337277    1.981811    0.578179
     13          8           0       -2.510261   -0.000029   -0.280453
     14          6           0       -1.202907   -0.000008   -0.269464
 ---------------------------------------------------------------------
 Rotational constants (GHZ):           3.6989749           2.0817441           1.3865682
 Standard basis: Aug-CC-pVDZ (5D, 7F)
 There are   254 symmetry adapted cartesian basis functions of A   symmetry.
 There are   238 symmetry adapted basis functions of A   symmetry.
   238 basis functions,   410 primitive gaussians,   254 cartesian basis functions
    28 alpha electrons       28 beta electrons
       nuclear repulsion energy       323.1184101761 Hartrees.
 NAtoms=   14 NActive=   14 NUniq=   14 SFac= 1.00D+00 NAtFMM=   60 NAOKFM=F Big=F
 Integral buffers will be    131072 words long.
 Regular integral format.
 Two-electron integral symmetry is turned on.
 One-electron integrals computed using PRISM.
 NBasis=   238 RedAO= T EigKep=  5.58D-06  NBF=   238
 NBsUse=   238 1.00D-06 EigRej= -1.00D+00 NBFU=   238
 Initial guess from the checkpoint file:  "tropone-pbe0-augccpvdz.chk"
 B after Tr=     0.000000    0.000000   -0.000000
         Rot=    0.999999   -0.000002    0.001052   -0.000004 Ang=  -0.12 deg.
 ExpMin= 2.97D-02 ExpMax= 1.17D+04 ExpMxC= 4.01D+02 IAcc=3 IRadAn=         5 AccDes= 0.00D+00
 Harris functional with IExCor= 1009 and IRadAn=       5 diagonalized for initial guess.
 HarFok:  IExCor= 1009 AccDes= 0.00D+00 IRadAn=         5 IDoV= 1 UseB2=F ITyADJ=14
 ICtDFT=  3500011 ScaDFX=  1.000000  1.000000  1.000000  1.000000
 FoFCou: FMM=F IPFlag=           0 FMFlag=      100000 FMFlg1=           0
         NFxFlg=           0 DoJE=T BraDBF=F KetDBF=T FulRan=T
         wScrn=  0.000000 ICntrl=       500 IOpCl=  0 I1Cent=   200000004 NGrid=           0
         NMat0=    1 NMatS0=      1 NMatT0=    0 NMatD0=    1 NMtDS0=    0 NMtDT0=    0
 Petite list used in FoFCou.
 Requested convergence on RMS density matrix=1.00D-08 within 128 cycles.
 Requested convergence on MAX density matrix=1.00D-06.
 Requested convergence on             energy=1.00D-06.
 No special actions if energy rises.
 SCF Done:  E(RPBE0DH) =  -344.936141817     A.U. after   14 cycles
            NFock= 14  Conv=0.65D-08     -V/T= 2.0057
 DoSCS=T DFT=T ScalE2(SS,OS)=  0.125000  0.125000
 ExpMin= 2.97D-02 ExpMax= 1.17D+04 ExpMxC= 4.01D+02 IAcc=3 IRadAn=         5 AccDes= 0.00D+00
 HarFok:  IExCor=  205 AccDes= 0.00D+00 IRadAn=         5 IDoV=-2 UseB2=F ITyADJ=14
 ICtDFT= 12500011 ScaDFX=  1.000000  1.000000  1.000000  1.000000
 Range of M.O.s used for correlation:     9   238
 NBasis=   238 NAE=    28 NBE=    28 NFC=     8 NFV=     0
 NROrb=    230 NOA=    20 NOB=    20 NVA=   210 NVB=   210

 **** Warning!!: The largest alpha MO coefficient is  0.73914642D+02

 DoSCS=T DFT=T ScalE2(SS,OS)=  0.125000  0.125000
 Disk-based method using ON**2 memory for 20 occupieds at a time.
 Estimated scratch disk usage=   680152144 words.
 Actual    scratch disk usage=   571493456 words.
 JobTyp=1 Pass  1:  I=   9 to  28 NPSUse= 16 ParTrn=T ParDer=T DoDerP=T.
 (rs|ai) integrals will be sorted in core.
 Spin components of T(2) and E(2):
     alpha-alpha T2 =       0.9756279118D-01 E2=     -0.2411666368D-01
     alpha-beta  T2 =       0.5270443973D+00 E2=     -0.1321660945D+00
     beta-beta   T2 =       0.9756279118D-01 E2=     -0.2411666368D-01
 E2(PBE0DH) =    -0.1803994218D+00 E(PBE0DH) =    -0.34511654123886D+03
          IDoAtm=11111111111111
          Differentiating once with respect to electric field.
                with respect to dipole field.
          Differentiating once with respect to nuclear coordinates.
 Keep R1 ints in memory in canonical form, NReq=421823599.
          There are     1 degrees of freedom in the 1st order CPHF.  IDoFFX=0 NUNeed=     1.
 LinEq1:  Iter=  0 NonCon=     1 RMS=9.57D-04 Max=3.21D-02 NDo=     1
 AX will form     1 AO Fock derivatives at one time.
 LinEq1:  Iter=  1 NonCon=     1 RMS=5.72D-04 Max=2.66D-02 NDo=     1
 LinEq1:  Iter=  2 NonCon=     1 RMS=2.04D-04 Max=5.52D-03 NDo=     1
 LinEq1:  Iter=  3 NonCon=     1 RMS=1.09D-04 Max=3.53D-03 NDo=     1
 LinEq1:  Iter=  4 NonCon=     1 RMS=3.96D-05 Max=1.43D-03 NDo=     1
 LinEq1:  Iter=  5 NonCon=     1 RMS=1.80D-05 Max=4.95D-04 NDo=     1
 LinEq1:  Iter=  6 NonCon=     1 RMS=1.01D-05 Max=2.99D-04 NDo=     1
 LinEq1:  Iter=  7 NonCon=     1 RMS=3.78D-06 Max=7.01D-05 NDo=     1
 LinEq1:  Iter=  8 NonCon=     1 RMS=1.90D-06 Max=4.35D-05 NDo=     1
 LinEq1:  Iter=  9 NonCon=     1 RMS=5.61D-07 Max=8.96D-06 NDo=     1
 LinEq1:  Iter= 10 NonCon=     1 RMS=1.36D-07 Max=1.77D-06 NDo=     1
 LinEq1:  Iter= 11 NonCon=     1 RMS=5.52D-08 Max=9.52D-07 NDo=     1
 LinEq1:  Iter= 12 NonCon=     1 RMS=1.79D-08 Max=3.79D-07 NDo=     1
 LinEq1:  Iter= 13 NonCon=     1 RMS=3.87D-09 Max=6.66D-08 NDo=     1
 LinEq1:  Iter= 14 NonCon=     1 RMS=8.81D-10 Max=1.31D-08 NDo=     1
 LinEq1:  Iter= 15 NonCon=     1 RMS=3.42D-10 Max=9.27D-09 NDo=     1
 LinEq1:  Iter= 16 NonCon=     1 RMS=2.06D-10 Max=3.37D-09 NDo=     1
 LinEq1:  Iter= 17 NonCon=     0 RMS=4.83D-11 Max=9.33D-10 NDo=     1
 Linear equations converged to 1.000D-10 1.000D-09 after    17 iterations.
 End of Minotr F.D. properties file   721 does not exist.
 End of Minotr F.D. properties file   722 does not exist.
 End of Minotr F.D. properties file   788 does not exist.
 Calling FoFJK, ICntrl=  10002127 FMM=F ISym2X=0 I1Cent= 0 IOpClX= 0 NMat=1 NMatS=1 NMatT=0.
 ***** Axes restored to original set *****
 -------------------------------------------------------------------
 Center     Atomic                   Forces (Hartrees/Bohr)
 Number     Number              X              Y              Z
 -------------------------------------------------------------------
      1        6          -0.008288359   -0.001332984    0.003696374
      2        6           0.008296845   -0.001325654    0.003683407
      3        6           0.000665363   -0.004923892   -0.003233169
      4        6          -0.000676838   -0.004914159   -0.003244261
      5        6          -0.000342091   -0.018724741    0.011313796
      6        6           0.000355862   -0.018729951    0.011320014
      7        1           0.003325382    0.002072884   -0.003181112
      8        1          -0.003328207    0.002071898   -0.003188437
      9        1          -0.001598759    0.001596736    0.003040544
     10        1           0.001600051    0.001595803    0.003042166
     11        1          -0.002131176   -0.001885424    0.002768821
     12        1           0.002133594   -0.001885534    0.002762651
     13        8          -0.000000485   -0.081250808   -0.006444278
     14        6          -0.000011180    0.127635826   -0.022336516
 -------------------------------------------------------------------
 Cartesian Forces:  Max     0.127635826 RMS     0.024270627

 GradGradGradGradGradGradGradGradGradGradGradGradGradGradGradGradGradGrad
 Berny optimization.
 Using GEDIIS/GDIIS optimizer.
 FormGI is forming the generalized inverse of G from B-inverse, IUseBI=4.
 Internal  Forces:  Max     0.077006172 RMS     0.011385013
 Search for a local minimum.
 Step number   2 out of a maximum of   73
 All quantities printed in internal units (Hartrees-Bohrs-Radians)
 Mixed Optimization -- RFO/linear search
 Update second derivatives using D2CorX and points    1    2
 DE= -5.10D-02 DEPred=-4.63D-02 R= 1.10D+00
 TightC=F SS=  1.41D+00  RLast= 4.84D-01 DXNew= 5.0454D-01 1.4521D+00
 Trust test= 1.10D+00 RLast= 4.84D-01 DXMaxT set to 5.05D-01
 ITU=  1  0
 Use linear search instead of GDIIS.
     Eigenvalues ---    0.01499   0.01758   0.01843   0.02057   0.02159
     Eigenvalues ---    0.02168   0.02225   0.02307   0.02624   0.02725
     Eigenvalues ---    0.03735   0.15895   0.15985   0.15997   0.15999
     Eigenvalues ---    0.16000   0.16017   0.18359   0.20470   0.21584
     Eigenvalues ---    0.21882   0.22206   0.28102   0.33079   0.33104
     Eigenvalues ---    0.33109   0.33110   0.33312   0.33326   0.33417
     Eigenvalues ---    0.34335   0.37623   0.38627   0.53548   0.54091
     Eigenvalues ---    0.57826
 RFO step:  Lambda=-5.43831599D-03 EMin= 1.49909909D-02
 Quartic linear search produced a step of  0.85726.
 Iteration  1 RMS(Cart)=  0.04944954 RMS(Int)=  0.01248089
 Iteration  2 RMS(Cart)=  0.01078494 RMS(Int)=  0.00574512
 Iteration  3 RMS(Cart)=  0.00011403 RMS(Int)=  0.00574322
 Iteration  4 RMS(Cart)=  0.00000124 RMS(Int)=  0.00574322
 Iteration  5 RMS(Cart)=  0.00000002 RMS(Int)=  0.00574322
 Variable       Old X    -DE/DX   Delta X   Delta X   Delta X     New X
                                 (Linear)    (Quad)   (Total)
    R1        2.56105   0.00227   0.01425  -0.01170   0.00072   2.56177
    R2        2.72102  -0.00221  -0.00436  -0.00308  -0.00854   2.71248
    R3        2.06761  -0.00323  -0.01798   0.01072  -0.00726   2.06036
    R4        2.72105  -0.00222  -0.00438  -0.00308  -0.00856   2.71248
    R5        2.06761  -0.00323  -0.01798   0.01072  -0.00726   2.06036
    R6        2.55840   0.00257   0.01952  -0.01883   0.00108   2.55948
    R7        2.06857  -0.00294  -0.01725   0.01114  -0.00611   2.06246
    R8        2.55841   0.00256   0.01950  -0.01881   0.00108   2.55949
    R9        2.06858  -0.00294  -0.01725   0.01114  -0.00612   2.06246
   R10        2.06160  -0.00295  -0.01857   0.01325  -0.00532   2.05628
   R11        2.77328  -0.00167  -0.02601   0.03085   0.00640   2.77968
   R12        2.06160  -0.00295  -0.01857   0.01326  -0.00532   2.05628
   R13        2.77329  -0.00167  -0.02603   0.03086   0.00639   2.77968
   R14        2.47063  -0.07701  -0.19861  -0.04836  -0.24697   2.22365
    A1        2.21259   0.00008   0.00974  -0.00279   0.00333   2.21593
    A2        2.06098  -0.00200  -0.01388  -0.00161  -0.01373   2.04724
    A3        2.00884   0.00194   0.00442   0.00431   0.01052   2.01936
    A4        2.21255   0.00009   0.00975  -0.00278   0.00335   2.21591
    A5        2.06101  -0.00200  -0.01390  -0.00162  -0.01375   2.04726
    A6        2.00885   0.00194   0.00443   0.00430   0.01053   2.01937
    A7        2.20904   0.00123   0.00907   0.00285   0.01148   2.22053
    A8        2.00707   0.00121   0.00464  -0.00022   0.00441   2.01147
    A9        2.06707  -0.00244  -0.01371  -0.00266  -0.01644   2.05064
   A10        2.20908   0.00123   0.00905   0.00284   0.01146   2.22054
   A11        2.00706   0.00121   0.00466  -0.00023   0.00441   2.01147
   A12        2.06704  -0.00244  -0.01371  -0.00264  -0.01641   2.05063
   A13        2.10251  -0.00074   0.00761  -0.02091  -0.01470   2.08781
   A14        2.18485   0.00467   0.00845   0.02819   0.03907   2.22391
   A15        1.99579  -0.00392  -0.01586  -0.00760  -0.02490   1.97089
   A16        2.10253  -0.00074   0.00759  -0.02091  -0.01472   2.08781
   A17        2.18484   0.00467   0.00846   0.02820   0.03908   2.22392
   A18        1.99579  -0.00392  -0.01586  -0.00760  -0.02490   1.97088
   A19        2.04697   0.00141   0.07567  -0.06165  -0.00413   2.04285
   A20        1.98849   0.00954   0.06328   0.04628   0.08141   2.06990
   A21        1.98850   0.00954   0.06326   0.04630   0.08141   2.06991
    D1       -0.00026   0.00000   0.00003   0.00002   0.00006  -0.00020
    D2       -3.09721  -0.00063  -0.00725   0.00255  -0.00390  -3.10111
    D3        3.09686   0.00064   0.00730  -0.00252   0.00398   3.10084
    D4       -0.00009   0.00000   0.00002   0.00001   0.00003  -0.00007
    D5       -0.48801   0.00376   0.03665   0.01101   0.04666  -0.44135
    D6        2.65468   0.00422   0.03859   0.04478   0.08234   2.73702
    D7        2.69692   0.00322   0.03007   0.01361   0.04332   2.74023
    D8       -0.44358   0.00369   0.03201   0.04739   0.07900  -0.36458
    D9        0.48825  -0.00376  -0.03669  -0.01102  -0.04671   0.44154
   D10       -2.65441  -0.00423  -0.03861  -0.04481  -0.08239  -2.73681
   D11       -2.69684  -0.00322  -0.03009  -0.01361  -0.04334  -2.74018
   D12        0.44369  -0.00369  -0.03202  -0.04740  -0.07903   0.36466
   D13       -3.13344  -0.00247  -0.02543  -0.01152  -0.03621   3.11354
   D14        0.01738  -0.00325  -0.03958   0.03159  -0.00644   0.01094
   D15        0.00926  -0.00199  -0.02344   0.02330   0.00016   0.00942
   D16       -3.12311  -0.00277  -0.03758   0.06642   0.02993  -3.09318
   D17        3.13361   0.00247   0.02543   0.01149   0.03617  -3.11341
   D18       -0.01721   0.00325   0.03956  -0.03161   0.00641  -0.01079
   D19       -0.00912   0.00199   0.02342  -0.02332  -0.00021  -0.00932
   D20        3.12325   0.00277   0.03755  -0.06642  -0.02996   3.09329
   D21       -0.85081   0.01492   0.11446  -0.00449   0.11274  -0.73807
   D22        3.04577  -0.01410  -0.10277  -0.06346  -0.16970   2.87607
   D23        2.29951   0.01417   0.10079   0.03637   0.14081   2.44032
   D24       -0.08709  -0.01485  -0.11644  -0.02259  -0.14162  -0.22871
   D25        0.85065  -0.01491  -0.11444   0.00451  -0.11271   0.73794
   D26       -3.04594   0.01410   0.10281   0.06346   0.16973  -2.87621
   D27       -2.29967  -0.01416  -0.10078  -0.03634  -0.14077  -2.44044
   D28        0.08693   0.01485   0.11647   0.02261   0.14167   0.22860
         Item               Value     Threshold  Converged?
 Maximum Force            0.077006     0.000450     NO 
 RMS     Force            0.011385     0.000300     NO 
 Maximum Displacement     0.191308     0.001800     NO 
 RMS     Displacement     0.050813     0.001200     NO 
 Predicted change in Energy=-2.833370D-02
 GradGradGradGradGradGradGradGradGradGradGradGradGradGradGradGradGradGrad

                          Input orientation:                          
 ---------------------------------------------------------------------
 Center     Atomic      Atomic             Coordinates (Angstroms)
 Number     Number       Type             X           Y           Z
 ---------------------------------------------------------------------
      1          6           0        0.035515   -1.108924   -0.018060
      2          6           0        1.391146   -1.108909   -0.018115
      3          6           0        2.254211    0.037583    0.013602
      4          6           0       -0.827598    0.037519    0.013955
      5          6           0        1.967822    1.265330    0.508648
      6          6           0       -0.541173    1.265246    0.509042
      7          1           0       -0.464513   -2.075529   -0.084299
      8          1           0        1.891202   -2.075501   -0.084329
      9          1           0        3.259135   -0.125177   -0.379849
     10          1           0       -1.832612   -0.125268   -0.379255
     11          1           0        2.729078    2.042682    0.492687
     12          1           0       -1.302519    2.042517    0.493426
     13          8           0        0.713479    2.707508    1.754433
     14          6           0        0.713410    1.704703    1.138786
 ---------------------------------------------------------------------
                    Distance matrix (angstroms):
                    1          2          3          4          5
     1  C    0.000000
     2  C    1.355631   0.000000
     3  C    2.497618   1.435385   0.000000
     4  C    1.435382   2.497629   3.081809   0.000000
     5  C    3.106174   2.499409   1.354420   3.092995   0.000000
     6  C    2.499418   3.106181   3.093022   1.354424   2.508995
     7  H    1.090294   2.093372   3.444748   2.146266   4.174827
     8  H    2.093379   1.090294   2.146273   3.444762   3.393913
     9  H    3.389746   2.141953   1.091406   4.108886   2.095334
    10  H    2.141948   3.389777   4.108891   1.091406   4.143119
    11  H    4.177173   3.461720   2.115525   4.110938   1.088137
    12  H    3.461724   4.177199   4.111000   2.115528   3.361455
    13  O    4.262220   4.262182   3.540176   3.540201   2.281498
    14  C    3.116783   3.116755   2.533653   2.533664   1.470943
                    6          7          8          9         10
     6  C    0.000000
     7  H    3.393922   0.000000
     8  H    4.174820   2.355715   0.000000
     9  H    4.143156   4.213879   2.400487   0.000000
    10  H    2.095332   2.400462   4.213927   5.091747   0.000000
    11  H    3.361431   5.243244   4.241983   2.396225   5.125359
    12  H    1.088137   4.241972   5.243255   5.125446   2.396218
    13  O    2.281506   5.257951   5.257875   4.365734   4.365755
    14  C    1.470944   4.144104   4.144049   3.483595   3.483600
                   11         12         13         14
    11  H    0.000000
    12  H    4.031597   0.000000
    13  O    2.469137   2.469129   0.000000
    14  C    2.143500   2.143496   1.176707   0.000000
 Stoichiometry    C7H6O
 Framework group  C1[X(C7H6O)]
 Deg. of freedom    36
 Full point group                 C1      NOp   1
 Largest Abelian subgroup         C1      NOp   1
 Largest concise Abelian subgroup C1      NOp   1
                         Standard orientation:                         
 ---------------------------------------------------------------------
 Center     Atomic      Atomic             Coordinates (Angstroms)
 Number     Number       Type             X           Y           Z
 ---------------------------------------------------------------------
      1          6           0        1.772520    0.677804   -0.216292
      2          6           0        1.772484   -0.677827   -0.216400
      3          6           0        0.706298   -1.540909    0.206292
      4          6           0        0.706317    1.540900    0.206317
      5          6           0       -0.617170   -1.254481    0.235344
      6          6           0       -0.617166    1.254514    0.235253
      7          1           0        2.686982    1.177841   -0.536390
      8          1           0        2.686891   -1.177874   -0.536638
      9          1           0        1.010944   -2.545879    0.503602
     10          1           0        1.010958    2.545868    0.503639
     11          1           0       -1.325309   -2.015753    0.556352
     12          1           0       -1.325318    2.015844    0.556096
     13          8           0       -2.433614   -0.000009   -0.340906
     14          6           0       -1.269323    0.000002   -0.170416
 ---------------------------------------------------------------------
 Rotational constants (GHZ):           3.6842861           2.1242351           1.4022484
 Standard basis: Aug-CC-pVDZ (5D, 7F)
 There are   254 symmetry adapted cartesian basis functions of A   symmetry.
 There are   238 symmetry adapted basis functions of A   symmetry.
   238 basis functions,   410 primitive gaussians,   254 cartesian basis functions
    28 alpha electrons       28 beta electrons
       nuclear repulsion energy       325.8613558851 Hartrees.
 NAtoms=   14 NActive=   14 NUniq=   14 SFac= 1.00D+00 NAtFMM=   60 NAOKFM=F Big=F
 Integral buffers will be    131072 words long.
 Regular integral format.
 Two-electron integral symmetry is turned on.
 One-electron integrals computed using PRISM.
 NBasis=   238 RedAO= T EigKep=  5.00D-06  NBF=   238
 NBsUse=   238 1.00D-06 EigRej= -1.00D+00 NBFU=   238
 Initial guess from the checkpoint file:  "tropone-pbe0-augccpvdz.chk"
 B after Tr=    -0.000000    0.000000    0.000000
         Rot=    1.000000   -0.000001    0.000953    0.000003 Ang=  -0.11 deg.
 ExpMin= 2.97D-02 ExpMax= 1.17D+04 ExpMxC= 4.01D+02 IAcc=3 IRadAn=         5 AccDes= 0.00D+00
 Harris functional with IExCor= 1009 and IRadAn=       5 diagonalized for initial guess.
 HarFok:  IExCor= 1009 AccDes= 0.00D+00 IRadAn=         5 IDoV= 1 UseB2=F ITyADJ=14
 ICtDFT=  3500011 ScaDFX=  1.000000  1.000000  1.000000  1.000000
 FoFCou: FMM=F IPFlag=           0 FMFlag=      100000 FMFlg1=           0
         NFxFlg=           0 DoJE=T BraDBF=F KetDBF=T FulRan=T
         wScrn=  0.000000 ICntrl=       500 IOpCl=  0 I1Cent=   200000004 NGrid=           0
         NMat0=    1 NMatS0=      1 NMatT0=    0 NMatD0=    1 NMtDS0=    0 NMtDT0=    0
 Petite list used in FoFCou.
 Requested convergence on RMS density matrix=1.00D-08 within 128 cycles.
 Requested convergence on MAX density matrix=1.00D-06.
 Requested convergence on             energy=1.00D-06.
 No special actions if energy rises.
 SCF Done:  E(RPBE0DH) =  -344.958897828     A.U. after   14 cycles
            NFock= 14  Conv=0.60D-08     -V/T= 2.0043
 DoSCS=T DFT=T ScalE2(SS,OS)=  0.125000  0.125000
 ExpMin= 2.97D-02 ExpMax= 1.17D+04 ExpMxC= 4.01D+02 IAcc=3 IRadAn=         5 AccDes= 0.00D+00
 HarFok:  IExCor=  205 AccDes= 0.00D+00 IRadAn=         5 IDoV=-2 UseB2=F ITyADJ=14
 ICtDFT= 12500011 ScaDFX=  1.000000  1.000000  1.000000  1.000000
 Range of M.O.s used for correlation:     9   238
 NBasis=   238 NAE=    28 NBE=    28 NFC=     8 NFV=     0
 NROrb=    230 NOA=    20 NOB=    20 NVA=   210 NVB=   210

 **** Warning!!: The largest alpha MO coefficient is  0.83574963D+02

 DoSCS=T DFT=T ScalE2(SS,OS)=  0.125000  0.125000
 Disk-based method using ON**2 memory for 20 occupieds at a time.
 Estimated scratch disk usage=   680191832 words.
 Actual    scratch disk usage=   571533144 words.
 JobTyp=1 Pass  1:  I=   9 to  28 NPSUse= 16 ParTrn=T ParDer=T DoDerP=T.
 (rs|ai) integrals will be sorted in core.
 Spin components of T(2) and E(2):
     alpha-alpha T2 =       0.9235263402D-01 E2=     -0.2353487067D-01
     alpha-beta  T2 =       0.4958789332D+00 E2=     -0.1291814674D+00
     beta-beta   T2 =       0.9235263402D-01 E2=     -0.2353487067D-01
 E2(PBE0DH) =    -0.1762512087D+00 E(PBE0DH) =    -0.34513514903661D+03
          IDoAtm=11111111111111
          Differentiating once with respect to electric field.
                with respect to dipole field.
          Differentiating once with respect to nuclear coordinates.
 Keep R1 ints in memory in canonical form, NReq=421823599.
          There are     1 degrees of freedom in the 1st order CPHF.  IDoFFX=0 NUNeed=     1.
 LinEq1:  Iter=  0 NonCon=     1 RMS=8.22D-04 Max=1.84D-02 NDo=     1
 AX will form     1 AO Fock derivatives at one time.
 LinEq1:  Iter=  1 NonCon=     1 RMS=4.05D-04 Max=1.73D-02 NDo=     1
 LinEq1:  Iter=  2 NonCon=     1 RMS=1.54D-04 Max=4.69D-03 NDo=     1
 LinEq1:  Iter=  3 NonCon=     1 RMS=7.10D-05 Max=1.96D-03 NDo=     1
 LinEq1:  Iter=  4 NonCon=     1 RMS=2.45D-05 Max=5.93D-04 NDo=     1
 LinEq1:  Iter=  5 NonCon=     1 RMS=7.82D-06 Max=1.35D-04 NDo=     1
 LinEq1:  Iter=  6 NonCon=     1 RMS=3.60D-06 Max=9.21D-05 NDo=     1
 LinEq1:  Iter=  7 NonCon=     1 RMS=1.61D-06 Max=4.49D-05 NDo=     1
 LinEq1:  Iter=  8 NonCon=     1 RMS=9.15D-07 Max=2.13D-05 NDo=     1
 LinEq1:  Iter=  9 NonCon=     1 RMS=2.26D-07 Max=4.90D-06 NDo=     1
 LinEq1:  Iter= 10 NonCon=     1 RMS=5.20D-08 Max=1.11D-06 NDo=     1
 LinEq1:  Iter= 11 NonCon=     1 RMS=1.57D-08 Max=3.16D-07 NDo=     1
 LinEq1:  Iter= 12 NonCon=     1 RMS=4.80D-09 Max=6.95D-08 NDo=     1
 LinEq1:  Iter= 13 NonCon=     1 RMS=1.03D-09 Max=2.05D-08 NDo=     1
 LinEq1:  Iter= 14 NonCon=     1 RMS=2.70D-10 Max=5.67D-09 NDo=     1
 LinEq1:  Iter= 15 NonCon=     1 RMS=1.09D-10 Max=1.54D-09 NDo=     1
 LinEq1:  Iter= 16 NonCon=     0 RMS=4.11D-11 Max=8.64D-10 NDo=     1
 Linear equations converged to 1.000D-10 1.000D-09 after    16 iterations.
 End of Minotr F.D. properties file   721 does not exist.
 End of Minotr F.D. properties file   722 does not exist.
 End of Minotr F.D. properties file   788 does not exist.
 Calling FoFJK, ICntrl=  10002127 FMM=F ISym2X=0 I1Cent= 0 IOpClX= 0 NMat=1 NMatS=1 NMatT=0.
 ***** Axes restored to original set *****
 -------------------------------------------------------------------
 Center     Atomic                   Forces (Hartrees/Bohr)
 Number     Number              X              Y              Z
 -------------------------------------------------------------------
      1        6          -0.003526812   -0.001514110    0.002283915
      2        6           0.003529113   -0.001512340    0.002274274
      3        6           0.000711364   -0.000199742    0.000741382
      4        6          -0.000712905   -0.000197155    0.000735345
      5        6           0.003243853   -0.015479984    0.002658332
      6        6          -0.003240573   -0.015482497    0.002661651
      7        1           0.000778056    0.000565669   -0.002690633
      8        1          -0.000779071    0.000565310   -0.002695930
      9        1          -0.000131814    0.000510689    0.001442444
     10        1           0.000131879    0.000510734    0.001443357
     11        1           0.000660654    0.000004108    0.000740096
     12        1          -0.000659511    0.000004512    0.000736886
     13        8           0.000006978    0.065402076    0.062638958
     14        6          -0.000011212   -0.033177270   -0.072970078
 -------------------------------------------------------------------
 Cartesian Forces:  Max     0.072970078 RMS     0.019027570

 GradGradGradGradGradGradGradGradGradGradGradGradGradGradGradGradGradGrad
 Berny optimization.
 Using GEDIIS/GDIIS optimizer.
 FormGI is forming the generalized inverse of G from B-inverse, IUseBI=4.
 Internal  Forces:  Max     0.088508874 RMS     0.011772621
 Search for a local minimum.
 Step number   3 out of a maximum of   73
 All quantities printed in internal units (Hartrees-Bohrs-Radians)
 Mixed Optimization -- RFO/linear search
 Update second derivatives using D2CorX and points    2    3
 DE= -1.86D-02 DEPred=-2.83D-02 R= 6.57D-01
 TightC=F SS=  1.41D+00  RLast= 5.31D-01 DXNew= 8.4853D-01 1.5943D+00
 Trust test= 6.57D-01 RLast= 5.31D-01 DXMaxT set to 8.49D-01
 ITU=  1  1  0
 Use linear search instead of GDIIS.
     Eigenvalues ---    0.01361   0.01740   0.01761   0.02063   0.02085
     Eigenvalues ---    0.02171   0.02191   0.02208   0.02603   0.02616
     Eigenvalues ---    0.02700   0.15918   0.15984   0.15990   0.15995
     Eigenvalues ---    0.15995   0.16022   0.19911   0.21083   0.21844
     Eigenvalues ---    0.22361   0.22912   0.32767   0.33104   0.33107
     Eigenvalues ---    0.33110   0.33317   0.33386   0.33417   0.34305
     Eigenvalues ---    0.37679   0.38651   0.53654   0.54156   0.57802
     Eigenvalues ---    0.66388
 RFO step:  Lambda=-3.07200624D-02 EMin= 1.36126810D-02
 Quartic linear search produced a step of -0.13728.
 Iteration  1 RMS(Cart)=  0.06342256 RMS(Int)=  0.01022980
 Iteration  2 RMS(Cart)=  0.00897275 RMS(Int)=  0.00544617
 Iteration  3 RMS(Cart)=  0.00011938 RMS(Int)=  0.00544434
 Iteration  4 RMS(Cart)=  0.00000065 RMS(Int)=  0.00544434
 Variable       Old X    -DE/DX   Delta X   Delta X   Delta X     New X
                                 (Linear)    (Quad)   (Total)
    R1        2.56177   0.00221  -0.00010  -0.00094  -0.00278   2.55899
    R2        2.71248   0.00044   0.00117  -0.00092  -0.00080   2.71168
    R3        2.06036  -0.00069   0.00100   0.00042   0.00142   2.06177
    R4        2.71248   0.00044   0.00118  -0.00092  -0.00080   2.71168
    R5        2.06036  -0.00069   0.00100   0.00042   0.00142   2.06178
    R6        2.55948   0.00017  -0.00015  -0.00424  -0.00404   2.55544
    R7        2.06246  -0.00072   0.00084   0.00053   0.00137   2.06383
    R8        2.55949   0.00017  -0.00015  -0.00424  -0.00404   2.55545
    R9        2.06246  -0.00072   0.00084   0.00053   0.00137   2.06383
   R10        2.05628   0.00045   0.00073   0.00329   0.00402   2.06030
   R11        2.77968   0.00688  -0.00088   0.02067   0.02128   2.80096
   R12        2.05628   0.00045   0.00073   0.00329   0.00402   2.06031
   R13        2.77968   0.00688  -0.00088   0.02067   0.02129   2.80097
   R14        2.22365   0.08851   0.03390   0.11917   0.15307   2.37672
    A1        2.21593  -0.00008  -0.00046   0.01133   0.00766   2.22359
    A2        2.04724  -0.00040   0.00189  -0.00938  -0.00592   2.04132
    A3        2.01936   0.00047  -0.00144  -0.00181  -0.00165   2.01771
    A4        2.21591  -0.00008  -0.00046   0.01134   0.00767   2.22358
    A5        2.04726  -0.00040   0.00189  -0.00939  -0.00593   2.04133
    A6        2.01937   0.00047  -0.00144  -0.00181  -0.00165   2.01772
    A7        2.22053   0.00186  -0.00158   0.01877   0.01710   2.23762
    A8        2.01147  -0.00021  -0.00060  -0.00533  -0.00583   2.00564
    A9        2.05064  -0.00164   0.00226  -0.01392  -0.01163   2.03900
   A10        2.22054   0.00186  -0.00157   0.01876   0.01709   2.23762
   A11        2.01147  -0.00021  -0.00061  -0.00533  -0.00583   2.00564
   A12        2.05063  -0.00164   0.00225  -0.01391  -0.01163   2.03900
   A13        2.08781  -0.00160   0.00202  -0.01631  -0.01561   2.07220
   A14        2.22391   0.00298  -0.00536   0.03148   0.02881   2.25272
   A15        1.97089  -0.00137   0.00342  -0.01518  -0.01312   1.95777
   A16        2.08781  -0.00160   0.00202  -0.01632  -0.01561   2.07219
   A17        2.22392   0.00298  -0.00537   0.03148   0.02880   2.25273
   A18        1.97088  -0.00137   0.00342  -0.01518  -0.01312   1.95777
   A19        2.04285  -0.00301   0.00057   0.04186   0.02370   2.06655
   A20        2.06990   0.00526  -0.01118   0.07540   0.03742   2.10732
   A21        2.06991   0.00526  -0.01118   0.07539   0.03742   2.10733
    D1       -0.00020   0.00000  -0.00001   0.00007   0.00006  -0.00014
    D2       -3.10111   0.00020   0.00054  -0.00419  -0.00293  -3.10403
    D3        3.10084  -0.00019  -0.00055   0.00429   0.00302   3.10386
    D4       -0.00007   0.00000  -0.00000   0.00003   0.00003  -0.00004
    D5       -0.44135   0.00234  -0.00640   0.06751   0.06015  -0.38120
    D6        2.73702   0.00212  -0.01130   0.08389   0.07141   2.80844
    D7        2.74023   0.00255  -0.00595   0.06350   0.05732   2.79755
    D8       -0.36458   0.00233  -0.01085   0.07988   0.06858  -0.29599
    D9        0.44154  -0.00235   0.00641  -0.06758  -0.06021   0.38132
   D10       -2.73681  -0.00212   0.01131  -0.08395  -0.07147  -2.80828
   D11       -2.74018  -0.00256   0.00595  -0.06354  -0.05735  -2.79753
   D12        0.36466  -0.00233   0.01085  -0.07991  -0.06860   0.29606
   D13        3.11354  -0.00082   0.00497  -0.04142  -0.03581   3.07772
   D14        0.01094  -0.00098   0.00088  -0.04031  -0.03804  -0.02710
   D15        0.00942  -0.00108  -0.00002  -0.02491  -0.02450  -0.01508
   D16       -3.09318  -0.00124  -0.00411  -0.02379  -0.02672  -3.11990
   D17       -3.11341   0.00082  -0.00497   0.04139   0.03578  -3.07763
   D18       -0.01079   0.00098  -0.00088   0.04028   0.03801   0.02722
   D19       -0.00932   0.00108   0.00003   0.02486   0.02446   0.01514
   D20        3.09329   0.00124   0.00411   0.02375   0.02669   3.11999
   D21       -0.73807   0.00887  -0.01548   0.19731   0.18226  -0.55581
   D22        2.87607  -0.00900   0.02330  -0.24558  -0.22304   2.65304
   D23        2.44032   0.00873  -0.01933   0.19847   0.18028   2.62060
   D24       -0.22871  -0.00913   0.01944  -0.24442  -0.22503  -0.45374
   D25        0.73794  -0.00886   0.01547  -0.19727  -0.18223   0.55571
   D26       -2.87621   0.00900  -0.02330   0.24562   0.22307  -2.65314
   D27       -2.44044  -0.00873   0.01932  -0.19842  -0.18024  -2.62068
   D28        0.22860   0.00913  -0.01945   0.24447   0.22507   0.45366
         Item               Value     Threshold  Converged?
 Maximum Force            0.088509     0.000450     NO 
 RMS     Force            0.011773     0.000300     NO 
 Maximum Displacement     0.232693     0.001800     NO 
 RMS     Displacement     0.060766     0.001200     NO 
 Predicted change in Energy=-2.210043D-02
 GradGradGradGradGradGradGradGradGradGradGradGradGradGradGradGradGradGrad

                          Input orientation:                          
 ---------------------------------------------------------------------
 Center     Atomic      Atomic             Coordinates (Angstroms)
 Number     Number       Type             X           Y           Z
 ---------------------------------------------------------------------
      1          6           0        0.036246   -1.109803   -0.033248
      2          6           0        1.390407   -1.109782   -0.033337
      3          6           0        2.261986    0.028786    0.022544
      4          6           0       -0.835377    0.028714    0.022904
      5          6           0        1.986509    1.271340    0.479536
      6          6           0       -0.559862    1.271257    0.479915
      7          1           0       -0.458376   -2.078627   -0.117549
      8          1           0        1.885055   -2.078591   -0.117664
      9          1           0        3.284959   -0.158076   -0.311164
     10          1           0       -1.858426   -0.158188   -0.310549
     11          1           0        2.788283    2.009673    0.506021
     12          1           0       -1.361694    2.009518    0.506711
     13          8           0        0.713485    2.748936    1.850903
     14          6           0        0.713387    1.808626    1.015650
 ---------------------------------------------------------------------
                    Distance matrix (angstroms):
                    1          2          3          4          5
     1  C    0.000000
     2  C    1.354161   0.000000
     3  C    2.500684   1.434960   0.000000
     4  C    1.434957   2.500690   3.097363   0.000000
     5  C    3.120307   2.507612   1.352283   3.116997   0.000000
     6  C    2.507614   3.120308   3.117009   1.352287   2.546371
     7  H    1.091044   2.088960   3.444008   2.145400   4.190019
     8  H    2.088964   1.091044   2.145408   3.444015   3.404259
     9  H    3.396640   2.138284   1.092132   4.138075   2.086722
    10  H    2.138282   3.396659   4.138080   1.092132   4.177477
    11  H    4.194717   3.460631   2.105861   4.157946   1.090266
    12  H    3.460629   4.194728   4.157977   2.105864   3.428718
    13  O    4.347246   4.347217   3.624909   3.624936   2.384225
    14  C    3.174262   3.174246   2.559736   2.559747   1.482206
                    6          7          8          9         10
     6  C    0.000000
     7  H    3.404260   0.000000
     8  H    4.190012   2.343431   0.000000
     9  H    4.177493   4.211718   2.384440   0.000000
    10  H    2.086723   2.384423   4.211745   5.143385   0.000000
    11  H    3.428705   5.257741   4.233049   2.369307   5.192140
    12  H    1.090267   4.233038   5.257742   5.192183   2.369305
    13  O    2.384231   5.343541   5.343487   4.442717   4.442744
    14  C    1.482208   4.215200   4.215171   3.498763   3.498769
                   11         12         13         14
    11  H    0.000000
    12  H    4.149977   0.000000
    13  O    2.580699   2.580690   0.000000
    14  C    2.146005   2.146004   1.257708   0.000000
 Stoichiometry    C7H6O
 Framework group  C1[X(C7H6O)]
 Deg. of freedom    36
 Full point group                 C1      NOp   1
 Largest Abelian subgroup         C1      NOp   1
 Largest concise Abelian subgroup C1      NOp   1
                         Standard orientation:                         
 ---------------------------------------------------------------------
 Center     Atomic      Atomic             Coordinates (Angstroms)
 Number     Number       Type             X           Y           Z
 ---------------------------------------------------------------------
      1          6           0        1.788942    0.677066   -0.221103
      2          6           0        1.788910   -0.677095   -0.221180
      3          6           0        0.722301   -1.548686    0.181044
      4          6           0        0.722332    1.548677    0.181066
      5          6           0       -0.599441   -1.273172    0.256929
      6          6           0       -0.599427    1.273199    0.256862
      7          1           0        2.711167    1.171694   -0.529683
      8          1           0        2.711097   -1.171737   -0.529851
      9          1           0        1.026603   -2.571698    0.412559
[...]
 ! A9    A(5,3,9)              115.3362         -DE/DX =    0.0                 !
 ! A10   A(1,4,6)              130.1642         -DE/DX =    0.0                 !
 ! A11   A(1,4,10)             114.4995         -DE/DX =    0.0                 !
 ! A12   A(6,4,10)             115.3363         -DE/DX =    0.0                 !
 ! A13   A(3,5,11)             117.4836         -DE/DX =    0.0                 !
 ! A14   A(3,5,14)             130.8424         -DE/DX =    0.0                 !
 ! A15   A(11,5,14)            111.674          -DE/DX =    0.0                 !
 ! A16   A(4,6,12)             117.4837         -DE/DX =    0.0                 !
 ! A17   A(4,6,14)             130.8424         -DE/DX =    0.0                 !
 ! A18   A(12,6,14)            111.6739         -DE/DX =    0.0                 !
 ! A19   A(5,14,6)             122.0383         -DE/DX =    0.0                 !
 ! A20   A(5,14,13)            118.9809         -DE/DX =    0.0                 !
 ! A21   A(6,14,13)            118.9809         -DE/DX =    0.0                 !
 ! D1    D(4,1,2,3)             -0.0001         -DE/DX =    0.0                 !
 ! D2    D(4,1,2,8)           -180.0023         -DE/DX =    0.0                 !
 ! D3    D(7,1,2,3)            180.0022         -DE/DX =    0.0                 !
 ! D4    D(7,1,2,8)              0.0            -DE/DX =    0.0                 !
 ! D5    D(2,1,4,6)              0.0041         -DE/DX =    0.0                 !
 ! D6    D(2,1,4,10)           180.0017         -DE/DX =    0.0                 !
 ! D7    D(7,1,4,6)            180.0019         -DE/DX =    0.0                 !
 ! D8    D(7,1,4,10)            -0.0006         -DE/DX =    0.0                 !
 ! D9    D(1,2,3,5)             -0.0041         -DE/DX =    0.0                 !
 ! D10   D(1,2,3,9)           -180.0016         -DE/DX =    0.0                 !
 ! D11   D(8,2,3,5)           -180.0019         -DE/DX =    0.0                 !
 ! D12   D(8,2,3,9)              0.0006         -DE/DX =    0.0                 !
 ! D13   D(2,3,5,11)           180.0005         -DE/DX =    0.0                 !
 ! D14   D(2,3,5,14)            -0.0057         -DE/DX =    0.0                 !
 ! D15   D(9,3,5,11)            -0.0019         -DE/DX =    0.0                 !
 ! D16   D(9,3,5,14)          -180.0082         -DE/DX =    0.0                 !
 ! D17   D(1,4,6,12)          -180.0005         -DE/DX =    0.0                 !
 ! D18   D(1,4,6,14)             0.0058         -DE/DX =    0.0                 !
 ! D19   D(10,4,6,12)            0.0019         -DE/DX =    0.0                 !
 ! D20   D(10,4,6,14)          180.0083         -DE/DX =    0.0                 !
 ! D21   D(3,5,14,6)             0.0183         -DE/DX =    0.0                 !
 ! D22   D(3,5,14,13)         -179.9822         -DE/DX =    0.0                 !
 ! D23   D(11,5,14,6)          180.0123         -DE/DX =    0.0                 !
 ! D24   D(11,5,14,13)           0.0118         -DE/DX =    0.0                 !
 ! D25   D(4,6,14,5)            -0.0184         -DE/DX =    0.0                 !
 ! D26   D(4,6,14,13)          179.9821         -DE/DX =    0.0                 !
 ! D27   D(12,6,14,5)         -180.0123         -DE/DX =    0.0                 !
 ! D28   D(12,6,14,13)          -0.0118         -DE/DX =    0.0                 !
 --------------------------------------------------------------------------------
 GradGradGradGradGradGradGradGradGradGradGradGradGradGradGradGradGradGrad

                          Input orientation:                          
 ---------------------------------------------------------------------
 Center     Atomic      Atomic             Coordinates (Angstroms)
 Number     Number       Type             X           Y           Z
 ---------------------------------------------------------------------
      1          6           0        0.033742   -1.097902   -0.166145
      2          6           0        1.392874   -1.097866   -0.166317
      3          6           0        2.273435   -0.022412    0.174226
      4          6           0       -0.846791   -0.022495    0.174623
      5          6           0        1.994455    1.243951    0.575322
      6          6           0       -0.567774    1.243883    0.575649
      7          1           0       -0.454389   -2.025670   -0.459921
      8          1           0        1.880979   -2.025609   -0.460216
      9          1           0        3.333329   -0.264501    0.097429
     10          1           0       -1.906691   -0.264639    0.098095
     11          1           0        2.836893    1.902360    0.783775
     12          1           0       -1.410194    1.902247    0.784317
     13          8           0        0.713366    3.092005    1.160284
     14          6           0        0.713350    1.920430    0.789554
 ---------------------------------------------------------------------
                    Distance matrix (angstroms):
                    1          2          3          4          5
     1  C    0.000000
     2  C    1.359132   0.000000
     3  C    2.507740   1.431069   0.000000
     4  C    1.431070   2.507740   3.120226   0.000000
     5  C    3.142999   2.529039   1.357345   3.136418   0.000000
     6  C    2.529039   3.142999   3.136418   1.357345   2.562229
     7  H    1.088729   2.087918   3.443285   2.137601   4.214141
     8  H    2.087918   1.088729   2.137601   3.443285   3.431507
     9  H    3.413401   2.128245   1.089899   4.187831   2.072775
    10  H    2.128245   3.413401   4.187831   1.089899   4.209813
    11  H    4.214448   3.462545   2.096135   4.200673   1.089338
    12  H    3.462546   4.214448   4.200673   2.096135   3.473998
    13  O    4.447091   4.447091   3.620183   3.620183   2.323504
    14  C    3.238141   3.238140   2.566541   2.566541   1.464496
                    6          7          8          9         10
     6  C    0.000000
     7  H    3.431507   0.000000
     8  H    4.214141   2.335367   0.000000
     9  H    4.209813   4.214162   2.349849   0.000000
    10  H    2.072775   2.349850   4.214162   5.240020   0.000000
    11  H    3.473999   5.273399   4.229683   2.326543   5.260003
    12  H    1.089338   4.229684   5.273399   5.260002   2.326544
    13  O    2.323504   5.493570   5.493570   4.388622   4.388622
    14  C    1.464496   4.300757   4.300757   3.480985   3.480985
                   11         12         13         14
    11  H    0.000000
    12  H    4.247087   0.000000
    13  O    2.463003   2.463002   0.000000
    14  C    2.123628   2.123628   1.228832   0.000000
 Stoichiometry    C7H6O
 Framework group  C1[X(C7H6O)]
 Deg. of freedom    36
 Full point group                 C1      NOp   1
 Largest Abelian subgroup         C1      NOp   1
 Largest concise Abelian subgroup C1      NOp   1
                         Standard orientation:                         
 ---------------------------------------------------------------------
 Center     Atomic      Atomic             Coordinates (Angstroms)
 Number     Number       Type             X           Y           Z
 ---------------------------------------------------------------------
      1          6           0        1.844031    0.679566    0.000087
      2          6           0        1.844031   -0.679566    0.000086
      3          6           0        0.715937   -1.560113   -0.000052
      4          6           0        0.715937    1.560113   -0.000052
      5          6           0       -0.612425   -1.281114   -0.000141
      6          6           0       -0.612424    1.281115   -0.000142
      7          1           0        2.817207    1.167683    0.000168
      8          1           0        2.817207   -1.167684    0.000166
      9          1           0        0.969901   -2.620010   -0.000050
     10          1           0        0.969901    2.620010   -0.000049
     11          1           0       -1.303054   -2.123544   -0.000233
     12          1           0       -1.303055    2.123543   -0.000235
     13          8           0       -2.550830    0.000000    0.000199
     14          6           0       -1.321998   -0.000000   -0.000013
 ---------------------------------------------------------------------
 Rotational constants (GHZ):           3.7557194           2.0292352           1.3174240

 **********************************************************************

            Population analysis using the SCF Density.

 **********************************************************************

 Orbital symmetries:
       Occupied  (A) (A) (A) (A) (A) (A) (A) (A) (A) (A) (A) (A)
                 (A) (A) (A) (A) (A) (A) (A) (A) (A) (A) (A) (A)
                 (A) (A) (A) (A)
       Virtual   (A) (A) (A) (A) (A) (A) (A) (A) (A) (A) (A) (A)
                 (A) (A) (A) (A) (A) (A) (A) (A) (A) (A) (A) (A)
                 (A) (A) (A) (A) (A) (A) (A) (A) (A) (A) (A) (A)
                 (A) (A) (A) (A) (A) (A) (A) (A) (A) (A) (A) (A)
                 (A) (A) (A) (A) (A) (A) (A) (A) (A) (A) (A) (A)
                 (A) (A) (A) (A) (A) (A) (A) (A) (A) (A) (A) (A)
                 (A) (A) (A) (A) (A) (A) (A) (A) (A) (A) (A) (A)
                 (A) (A) (A) (A) (A) (A) (A) (A) (A) (A) (A) (A)
                 (A) (A) (A) (A) (A) (A) (A) (A) (A) (A) (A) (A)
                 (A) (A) (A) (A) (A) (A) (A) (A) (A) (A) (A) (A)
                 (A) (A) (A) (A) (A) (A) (A) (A) (A) (A) (A) (A)
                 (A) (A) (A) (A) (A) (A) (A) (A) (A) (A) (A) (A)
                 (A) (A) (A) (A) (A) (A) (A) (A) (A) (A) (A) (A)
                 (A) (A) (A) (A) (A) (A) (A) (A) (A) (A) (A) (A)
                 (A) (A) (A) (A) (A) (A) (A) (A) (A) (A) (A) (A)
                 (A) (A) (A) (A) (A) (A) (A) (A) (A) (A) (A) (A)
                 (A) (A) (A) (A) (A) (A) (A) (A) (A) (A) (A) (A)
                 (A) (A) (A) (A) (A) (A)
 The electronic state is 1-A.
 Alpha  occ. eigenvalues --  -19.64516 -10.66069 -10.61314 -10.61314 -10.61120
 Alpha  occ. eigenvalues --  -10.61023 -10.60036 -10.60034  -1.17160  -0.98421
 Alpha  occ. eigenvalues --   -0.91890  -0.88682  -0.77658  -0.75440  -0.64202
 Alpha  occ. eigenvalues --   -0.62621  -0.60469  -0.54193  -0.52181  -0.49355
 Alpha  occ. eigenvalues --   -0.49328  -0.47760  -0.44899  -0.42359  -0.41552
 Alpha  occ. eigenvalues --   -0.35936  -0.32280  -0.28551
 Alpha virt. eigenvalues --   -0.05465  -0.02360   0.00346   0.01757   0.02744
 Alpha virt. eigenvalues --    0.04303   0.04758   0.06760   0.07326   0.08437
 Alpha virt. eigenvalues --    0.09647   0.09731   0.10259   0.10367   0.10429
 Alpha virt. eigenvalues --    0.11435   0.12001   0.12074   0.12635   0.13062
 Alpha virt. eigenvalues --    0.13412   0.14234   0.14383   0.14787   0.15274
 Alpha virt. eigenvalues --    0.15295   0.16034   0.18505   0.18524   0.19816
 Alpha virt. eigenvalues --    0.20015   0.21391   0.23503   0.23891   0.24027
 Alpha virt. eigenvalues --    0.24703   0.25314   0.25932   0.27108   0.27168
 Alpha virt. eigenvalues --    0.28551   0.29310   0.29995   0.30347   0.30407
 Alpha virt. eigenvalues --    0.32569   0.32637   0.32865   0.33495   0.33584
 Alpha virt. eigenvalues --    0.34784   0.36131   0.37204   0.37692   0.39506
 Alpha virt. eigenvalues --    0.40836   0.41568   0.42742   0.43584   0.43840
 Alpha virt. eigenvalues --    0.43976   0.45655   0.46115   0.48155   0.49441
 Alpha virt. eigenvalues --    0.50276   0.51049   0.51305   0.52228   0.52243
 Alpha virt. eigenvalues --    0.55876   0.56862   0.56890   0.58523   0.58980
 Alpha virt. eigenvalues --    0.59189   0.61232   0.61512   0.62537   0.63694
 Alpha virt. eigenvalues --    0.64134   0.64292   0.65424   0.65576   0.68019
 Alpha virt. eigenvalues --    0.68423   0.68603   0.70179   0.70843   0.70857
 Alpha virt. eigenvalues --    0.71984   0.72454   0.73772   0.74979   0.75004
 Alpha virt. eigenvalues --    0.75988   0.77953   0.77954   0.81205   0.81702
 Alpha virt. eigenvalues --    0.82402   0.83154   0.83469   0.84808   0.84944
 Alpha virt. eigenvalues --    0.88735   0.90476   0.91652   0.94033   0.94742
 Alpha virt. eigenvalues --    0.95216   0.95574   1.00394   1.06279   1.06710
 Alpha virt. eigenvalues --    1.07825   1.13443   1.13625   1.15646   1.17430
 Alpha virt. eigenvalues --    1.18747   1.20789   1.28989   1.35373   1.35474
 Alpha virt. eigenvalues --    1.36420   1.37398   1.37987   1.38884   1.39204
 Alpha virt. eigenvalues --    1.41613   1.42510   1.47222   1.48730   1.48961
 Alpha virt. eigenvalues --    1.51087   1.51108   1.52663   1.53333   1.54377
 Alpha virt. eigenvalues --    1.54732   1.56658   1.58708   1.59137   1.59516
 Alpha virt. eigenvalues --    1.59694   1.59699   1.63156   1.68552   1.69049
 Alpha virt. eigenvalues --    1.69947   1.70727   1.75228   1.75872   1.76705
 Alpha virt. eigenvalues --    1.77834   1.79823   1.80808   1.82397   1.82430
 Alpha virt. eigenvalues --    1.85689   1.88721   1.89943   1.91730   1.93219
 Alpha virt. eigenvalues --    1.93688   1.95924   1.97245   2.00809   2.03521
 Alpha virt. eigenvalues --    2.05670   2.07181   2.07445   2.11175   2.11687
 Alpha virt. eigenvalues --    2.15936   2.16744   2.18144   2.20639   2.22209
 Alpha virt. eigenvalues --    2.26485   2.27221   2.30951   2.32472   2.39367
 Alpha virt. eigenvalues --    2.41721   2.46198   2.58524   2.59452   2.61543
 Alpha virt. eigenvalues --    2.66813   2.67596   2.73852   2.80946   2.85033
 Alpha virt. eigenvalues --    2.94301   2.98521   3.02089   3.05829   3.11205
 Alpha virt. eigenvalues --    3.11438   3.30092   3.33418   3.54498   3.57157
 Alpha virt. eigenvalues --    3.58993   3.70949   3.85200   3.92325   3.96986
          Condensed to atoms (all electrons):
               1          2          3          4          5          6
     1  C    8.939549  -1.638841   0.769699  -0.826243  -1.373449   0.201625
     2  C   -1.638841   8.939551  -0.826244   0.769701   0.201625  -1.373449
     3  C    0.769699  -0.826244   9.158685  -1.099152  -1.760427  -0.366219
     4  C   -0.826243   0.769701  -1.099152   9.158689  -0.366219  -1.760431
     5  C   -1.373449   0.201625  -1.760427  -0.366219   8.741561   0.315806
     6  C    0.201625  -1.373449  -0.366219  -1.760431   0.315806   8.741560
     7  H   -0.678243   0.318316  -0.113213   0.283829   0.012359  -0.034523
     8  H    0.318314  -0.678243   0.283830  -0.113214  -0.034522   0.012359
     9  H   -0.266425   0.054651  -0.744474  -0.001356   0.653968   0.045599
    10  H    0.054650  -0.266426  -0.001356  -0.744476   0.045599   0.653970
    11  H    0.071185   0.162872   0.754861  -0.030041  -0.725338  -0.224293
    12  H    0.162872   0.071185  -0.030041   0.754861  -0.224293  -0.725337
    13  O    0.033310   0.033310  -0.095791  -0.095791   0.098256   0.098256
    14  C   -0.498979  -0.498980  -0.390773  -0.390773  -0.315828  -0.315824
               7          8          9         10         11         12
     1  C   -0.678243   0.318314  -0.266425   0.054650   0.071185   0.162872
     2  C    0.318316  -0.678243   0.054651  -0.266426   0.162872   0.071185
     3  C   -0.113213   0.283830  -0.744474  -0.001356   0.754861  -0.030041
     4  C    0.283829  -0.113214  -0.001356  -0.744476  -0.030041   0.754861
     5  C    0.012359  -0.034522   0.653968   0.045599  -0.725338  -0.224293
     6  C   -0.034523   0.012359   0.045599   0.653970  -0.224293  -0.725337
     7  H    2.003114  -0.126758  -0.014575  -0.133351   0.002924  -0.010902
     8  H   -0.126758   2.003114  -0.133351  -0.014575  -0.010902   0.002924
     9  H   -0.014575  -0.133351   2.040068   0.004909  -0.164171  -0.000760
    10  H   -0.133351  -0.014575   0.004909   2.040069  -0.000760  -0.164171
    11  H    0.002924  -0.010902  -0.164171  -0.000760   2.063380  -0.003607
    12  H   -0.010902   0.002924  -0.000760  -0.164171  -0.003607   2.063379
    13  O    0.000780   0.000780  -0.001336  -0.001336  -0.080460  -0.080460
    14  C    0.026168   0.026168   0.062513   0.062514  -0.228250  -0.228251
              13         14
     1  C    0.033310  -0.498979
     2  C    0.033310  -0.498980
     3  C   -0.095791  -0.390773
     4  C   -0.095791  -0.390773
     5  C    0.098256  -0.315828
     6  C    0.098256  -0.315824
     7  H    0.000780   0.026168
     8  H    0.000780   0.026168
     9  H   -0.001336   0.062513
    10  H   -0.001336   0.062514
    11  H   -0.080460  -0.228250
    12  H   -0.080460  -0.228251
    13  O    8.848142   0.016950
    14  C    0.016950   8.426544
 Mulliken charges:
               1
     1  C    0.730975
     2  C    0.730973
     3  C    0.460614
     4  C    0.460614
     5  C    0.730902
     6  C    0.730900
     7  H   -0.535924
     8  H   -0.535924
     9  H   -0.535260
    10  H   -0.535260
    11  H   -0.587400
    12  H   -0.587400
    13  O   -0.774611
    14  C    0.246800
 Sum of Mulliken charges =  -0.00000
 Mulliken charges with hydrogens summed into heavy atoms:
               1
     1  C    0.195051
     2  C    0.195049
     3  C   -0.074646
     4  C   -0.074646
     5  C    0.143502
     6  C    0.143501
    13  O   -0.774611
    14  C    0.246800
 Electronic spatial extent (au):  <R**2>=            872.6731
 Charge=             -0.0000 electrons
 Dipole moment (field-independent basis, Debye):
    X=              4.7806    Y=             -0.0000    Z=             -0.0004  Tot=              4.7806
 Quadrupole moment (field-independent basis, Debye-Ang):
   XX=            -53.1121   YY=            -37.9970   ZZ=            -49.6577
   XY=              0.0000   XZ=              0.0021   YZ=              0.0000
 Traceless Quadrupole moment (field-independent basis, Debye-Ang):
   XX=             -6.1898   YY=              8.9253   ZZ=             -2.7355
   XY=              0.0000   XZ=              0.0021   YZ=              0.0000
 Octapole moment (field-independent basis, Debye-Ang**2):
  XXX=             42.8281  YYY=             -0.0000  ZZZ=              0.0013  XYY=              0.9123
  XXY=              0.0000  XXZ=             -0.0024  XZZ=             -5.9455  YZZ=             -0.0000
  YYZ=             -0.0008  XYZ=              0.0000
 Hexadecapole moment (field-independent basis, Debye-Ang**3):
 XXXX=           -740.4350 YYYY=           -378.3033 ZZZZ=            -55.6707 XXXY=              0.0000
 XXXZ=              0.0134 YYYX=              0.0000 YYYZ=              0.0000 ZZZX=             -0.0019
 ZZZY=              0.0000 XXYY=           -164.9289 XXZZ=           -128.9948 YYZZ=            -89.7408
 XXYZ=              0.0000 YYXZ=              0.0027 ZZXY=             -0.0000
 N-N= 3.222021974894D+02 E-N=-1.447665091372D+03  KE= 3.432689961477D+02
 1\1\GINC-D3002\FOpt\RPBE0DH-FC\Aug-CC-pVDZ\C7H6O1\ALBANO.B\24-Nov-2023
 \0\\# opt pbe0/aug-cc-pvdz\\tropone-pbe0-auccpvdz\\0,1\C,0.033741642,-
 1.097901765,-0.1661449406\C,1.392873828,-1.0978659281,-0.166317016\C,2
 .2734354529,-0.0224123545,0.1742263733\C,-0.8467906676,-0.0224948117,0
 .1746231661\C,1.9944545074,1.2439513355,0.5753219747\C,-0.5677744736,1
 .243882997,0.5756490535\H,-0.4543885171,-2.0256703292,-0.4599210649\H,
 1.880978545,-2.0256088723,-0.4602161961\H,3.3333290274,-0.2645008284,0
 .09742869\H,-1.906690734,-0.2646394228,0.0980947028\H,2.8368930805,1.9
 023595476,0.7837747491\H,-1.4101941864,1.9022472515,0.7843170381\O,0.7
 133656558,3.0920050004,1.1602837537\C,0.7133495197,1.9204302099,0.7895
 536164\\Version=ES64L-G16RevB.01\State=1-A\HF=-344.9721596\MP2=-345.14
 94209\RMSD=4.649e-09\RMSF=1.405e-05\Dipole=-0.0000242,-1.7517128,-0.55
 44738\PG=C01 [X(C7H6O1)]\\@


 LEARN FROM YESTERDAY,
 LIVE FOR TODAY,
 LOOK TO TOMORROW,
 REST THIS AFTERNOON.

           -- SNOOPY
 Job cpu time:       0 days  3 hours  1 minutes 36.8 seconds.
 Elapsed time:       0 days  0 hours 12 minutes 53.1 seconds.
 File lengths (MBytes):  RWF=   4408 Int=      0 D2E=      0 Chk=      8 Scr=      2
 Normal termination of Gaussian 16 at Fri Nov 24 10:49:17 2023.
