   This run of MOLCAS is using the pymolcas driver

                             OPE
                             OPE          NMOL  CASOP  ENMOLC A   SO
                 OPE        NMOLC        AS  OP EN  MO LC     AS  OP
                OPENM       OL CA        SO  PE NM  OL CA     SOP EN
                OP EN      MO   LC       AS  OP ENMOL  CASO   PENMOL
                OP  EN     MO   LC       AS  OP EN     MO     LC ASO
               OP   E  NMOL  C  AS       OP  EN MO     LC     AS  OP
               OP  E   NMO   LC AS        OPEN  MO     LCASOP EN   M
               O  PEN   MO  LCA  SO
            OPE   NMO   L   CAS    OP
        OPENMOL  CASOP     ENMOL   CASOPE
     OPENMOLCA   SOPENMOLCASOPEN   MOLCASOPE
    OPENMOLCAS   OP           EN   MOL    CAS
    OPENMOLCAS       OP  ENM        O     LCA
    OPENMOLCAS    OPEN  MOLCASO     P  E  NMO
    OPENMOLCAS     OP               E  N  MOL
    OPENMOLCA   SO           PENM   O  L  CAS    OPEN    MO    LCAS
    OPENMOLCA   SOP           ENM   O  L  CAS   OP  EN  MOLC  AS   O
    OPENMOLCA   SOPE           NM      O  LCA   S      OP  EN MO
    OPENMOLC                AS         O  PEN   M      OL  CA  SOPE
    OPENMO        LCASOPE  NMOL        C  ASO   P      ENMOLC     AS
    OPE     NMO      LCA  SO     P     E   NM   OL  CA SO  PE N   MO
          OPENMOLCA            SOPE   NMO        LCAS  O    P  ENMO
     OPENMOLCASOPENMOLCASOPENMOLCASOPENMOLCA
        OPENMOLCASOPENMOLCASOPENMOLCASOPE
            OPENMOLCASOPENMOLCASOPENM
               OPENMOLCASOPENMOLCA        version: 19.11
                   OPENMOLCASO
                       OPE                tag: 1286-gbb55712

 OpenMolcas is free software; you can redistribute it and/or modify it
 under the terms of the GNU Lesser General Public License version 2.1.
 OpenMolcas is distributed in the hope that it will be useful, but it
 is provided "as is" and without any express or implied warranties.
 For more details see the full text of the license in the file
 LICENSE or in <http://www.gnu.org/licenses/>.

                 Copyright (C) The OpenMolcas Authors
           For the author list and the recommended citation,
                   consult the file CONTRIBUTORS.md

           *************************************************
           * pymolcas version py2.10                       *
           *   build 37a7aace52bca75608481ee527254ec4      *
           *   (after the EMIL interpreter by V. Veryazov) *
           *************************************************

configuration info
------------------
C Compiler ID: GNU
C flags: -std=gnu99 -fopenmp
Fortran Compiler ID: GNU
Fortran flags: -fno-aggressive-loop-optimizations -cpp -fdefault-integer-8 -fopenmp
Definitions: _MOLCAS_;_I8_;_LINUX_;_OPENBLAS_
Parallel: OFF (GA=OFF)


   -------------------------------------------------------------------------------
  |
  |           Project: bf3-tropone
  |    Submitted from: /scratch/albano.b/tropone/cas/aug-cc-pvdz/8-6-1
  |      Scratch area: /scratch/albano.b/tropone/cas/aug-cc-pvdz/8-6-1/bf3-tropone
  |   Save outputs to: /scratch/albano.b/tropone/cas/aug-cc-pvdz/8-6-1
  |            Molcas: /work/lopez/Molcas
  |
  | Scratch area is empty
  |
  |    MOLCAS_DRIVER = /work/lopez/Molcas/bin/pymolcas
  |    MOLCAS_NPROCS = 1
  |     MOLCAS_PRINT = 3
  |    MOLCAS_SOURCE = /work/lopez/Molcas
  | MOLCAS_STRUCTURE = 0
  |
   -------------------------------------------------------------------------------

++ ---------   Input file   ---------

&GATEWAY
 coord=$MOLCAS_PROJECT.xyz
 basis
 aug-cc-pvdz
 Group=c1
 RICD

&SEWARD
doanalytic

&RASSCF
 fileorb=$MOLCAS_PROJECT.StrOrb
 alter
 1
 1 46 47
 Spin=1
 Charge=0
 Nactel=8 0 0
 Ras1=0
 Ras2=6
 Ras3=0
 ITERATIONS=200,100
 CIRoot=6 6 1
 Rlxroot=1

-- ----------------------------------

--- Start Module: gateway at Sun Nov 26 16:25:03 2023 ---

()()()()()()()()()()()()()()()()()()()()()()()()()()()()()()()()()()()()()()()()()()()()()()()()()()

                                              &GATEWAY

                                   only a single process is used
                       available to each process: 2.9 GB of memory, 1 thread
                                             pid: 36423
()()()()()()()()()()()()()()()()()()()()()()()()()()()()()()()()()()()()()()()()()()()()()()()()()()



 Basis Set     1 Label: C.AUG-CC-PVDZ
 Basis set is read from library:basis_library 
 Basis Set Reference(s):
     Ref: R.A. Kendall, T.H. Dunning, Jr. and R.J. Harrison, J. Chem. Phys. 96, 6769 
     CARBON       (9s,4p,1d) -> [3s,2p,1d], Diffuse (1s,1p,1d)                       




 Basis Set     2 Label: H.AUG-CC-PVDZ
 Basis set is read from library:basis_library 
 Basis Set Reference(s):
     Ref: T.H. Dunning, Jr. J. Chem. Phys. 90, 1007 (1989).                          
     HYDROGEN  (4s,1p) -> [2s,1p], Diffuse (1s,1p)                                   




 Basis Set     3 Label: C.AUG-CC-PVDZ
 Basis set is read from library:basis_library 
 Basis Set Reference(s):
     Ref: R.A. Kendall, T.H. Dunning, Jr. and R.J. Harrison, J. Chem. Phys. 96, 6769 
     CARBON       (9s,4p,1d) -> [3s,2p,1d], Diffuse (1s,1p,1d)                       




 Basis Set     4 Label: O.AUG-CC-PVDZ
 Basis set is read from library:basis_library 
 Basis Set Reference(s):
     Ref: R.A. Kendall, T.H. Dunning, Jr. and R.J. Harrison, J. Chem. Phys. 96, 6769 
     OXYGEN       (9s,4p,1d) -> [3s,2p,1d], Diffuse (1s,1p,1d)                       




 Basis Set     5 Label: B.AUG-CC-PVDZ
 Basis set is read from library:basis_library 
 Basis Set Reference(s):
     Ref: R.A. Kendall, T.H. Dunning, Jr. and R.J. Harrison, J. Chem. Phys. 96, 6769 
     BORON        (9s,4p,1d) -> [3s,2p,1d], Diffuse (1s,1p,1d)                       




 Basis Set     6 Label: F.AUG-CC-PVDZ
 Basis set is read from library:basis_library 
 Basis Set Reference(s):
     Ref: R.A. Kendall, T.H. Dunning, Jr. and R.J. Harrison, J. Chem. Phys. 96, 6769 
     FLUORINE     (9s,4p,1d) -> [3s,2p,1d], Diffuse (1s,1p,1d)                       




 Basis Set     8 Label: C.AUG-CC-PVDZ....acCD-aux-basis.
 On-the-fly basis set generation


 Basis Set     9 Label: C.AUG-CC-PVDZ....acCD-aux-basis.
 On-the-fly basis set generation


 Basis Set    10 Label: H.AUG-CC-PVDZ....acCD-aux-basis.
 On-the-fly basis set generation


 Basis Set    11 Label: C.AUG-CC-PVDZ....acCD-aux-basis.
 On-the-fly basis set generation


 Basis Set    12 Label: C.AUG-CC-PVDZ....acCD-aux-basis.
 On-the-fly basis set generation


 Basis Set    13 Label: O.AUG-CC-PVDZ....acCD-aux-basis.
 On-the-fly basis set generation


 Basis Set    14 Label: O.AUG-CC-PVDZ....acCD-aux-basis.
 On-the-fly basis set generation


 Basis Set    15 Label: B.AUG-CC-PVDZ....acCD-aux-basis.
 On-the-fly basis set generation


 Basis Set    16 Label: B.AUG-CC-PVDZ....acCD-aux-basis.
 On-the-fly basis set generation


 Basis Set    17 Label: F.AUG-CC-PVDZ....acCD-aux-basis.
 On-the-fly basis set generation


 Basis Set    18 Label: F.AUG-CC-PVDZ....acCD-aux-basis.
 On-the-fly basis set generation

  Weights used for alignment and distance                     
  mat. size =    18x    1
       12.0000000000000000
       12.0000000000000000
       12.0000000000000000
       12.0000000000000000
       12.0000000000000000
       12.0000000000000000
        1.0078250322300000
        1.0078250322300000
        1.0078250322300000
        1.0078250322300000
        1.0078250322300000
        1.0078250322300000
       12.0000000000000000
       15.9949146195700003
       11.0093053600000026
       18.9984031627299998
       18.9984031627299998
       18.9984031627299998


++    Symmetry information:
      ---------------------

                    Character Table for C1 

                             E  
                    a        1  x, y, xy, Rz, z, xz, Ry, yz, Rx, I
--


++    Basis set information:
      ----------------------


      Basis set label: C.AUG-CC-PVDZ.........

      Electronic valence basis set:
      ------------------
      Associated Effective Charge   6.000000 au
      Associated Actual Charge      6.000000 au
      Nuclear Model: Point charge

      Shell  nPrim  nBasis  Cartesian Spherical Contaminant
         s      10       4        X                  
         p       5       3        X                  
         d       2       2                 X         

       Label   Cartesian Coordinates / Bohr

 C1                -6.4143484074        0.4909773033       -0.0000075589
 C2                -5.6871969125       -1.9897644462        0.0000453534
 C3                -3.1979287186       -2.9746008852        0.0000963760
 C4                -4.8354444358        2.6507736371        0.0000472432
 C5                -0.9046043370       -1.7809289225       -0.0000925966
 C6                -2.2591619128        2.8240690816       -0.0001133836


      Basis set label: H.AUG-CC-PVDZ.........

      Electronic valence basis set:
      ------------------
      Associated Effective Charge   1.000000 au
      Associated Actual Charge      1.000000 au
      Nuclear Model: Point charge

      Shell  nPrim  nBasis  Cartesian Spherical Contaminant
         s       5       3        X                  
         p       2       2        X                  

       Label   Cartesian Coordinates / Bohr

 H7                -8.4369657423        0.8630322519       -0.0000642507
 H8                -7.1937489400       -3.3899759155        0.0000170075
 H9                -3.0900385850       -5.0300900061        0.0001833034
 H10               -5.8281213485        4.4537499942        0.0002305466
 H11                0.7634984872       -2.9737486188       -0.0004610932
 H12               -1.4384519672        4.7100422101       -0.0000548021


      Basis set label: C.AUG-CC-PVDZ.........

      Electronic valence basis set:
      ------------------
      Associated Effective Charge   6.000000 au
      Associated Actual Charge      6.000000 au
      Nuclear Model: Point charge

      Shell  nPrim  nBasis  Cartesian Spherical Contaminant
         s      10       4        X                  
         p       5       3        X                  
         d       2       2                 X         

       Label   Cartesian Coordinates / Bohr

 C13               -0.3731396514        0.8784561966       -0.0003288123


      Basis set label: O.AUG-CC-PVDZ.........

      Electronic valence basis set:
      ------------------
      Associated Effective Charge   8.000000 au
      Associated Actual Charge      8.000000 au
      Nuclear Model: Point charge

      Shell  nPrim  nBasis  Cartesian Spherical Contaminant
         s      10       4        X                  
         p       5       3        X                  
         d       2       2                 X         

       Label   Cartesian Coordinates / Bohr

 O14                1.8849677942        1.6944834009       -0.0006368377


      Basis set label: B.AUG-CC-PVDZ.........

      Electronic valence basis set:
      ------------------
      Associated Effective Charge   5.000000 au
      Associated Actual Charge      5.000000 au
      Nuclear Model: Point charge

      Shell  nPrim  nBasis  Cartesian Spherical Contaminant
         s      10       4        X                  
         p       5       3        X                  
         d       2       2                 X         

       Label   Cartesian Coordinates / Bohr

 B15                4.2906193865       -0.0426265522        0.0000075589


      Basis set label: F.AUG-CC-PVDZ.........

      Electronic valence basis set:
      ------------------
      Associated Effective Charge   9.000000 au
      Associated Actual Charge      9.000000 au
      Nuclear Model: Point charge

      Shell  nPrim  nBasis  Cartesian Spherical Contaminant
         s      10       4        X                  
         p       5       3        X                  
         d       2       2                 X         

       Label   Cartesian Coordinates / Bohr

 F16                4.1315989331       -1.5095075592       -2.1699819575
 F17                4.1314723215       -1.5072172111        2.1715731069
 F18                6.2615886167        1.6201000012       -0.0007766774
--


++    Molecular structure info:
      -------------------------

                    ************************************************ 
                    **** Cartesian Coordinates / Bohr, Angstrom **** 
                    ************************************************ 

     Center  Label                x              y              z                     x              y              z
        1      C1              -6.414348       0.490977      -0.000008             -3.394327       0.259814      -0.000004
        2      C2              -5.687197      -1.989764       0.000045             -3.009535      -1.052938       0.000024
        3      C3              -3.197929      -2.974601       0.000096             -1.692271      -1.574091       0.000051
        4      C4              -4.835444       2.650774       0.000047             -2.558807       1.402729       0.000025
        5      C5              -0.904604      -1.780929      -0.000093             -0.478696      -0.942427      -0.000049
        6      C6              -2.259162       2.824069      -0.000113             -1.195497       1.494433      -0.000060
        7      H7              -8.436966       0.863032      -0.000064             -4.464650       0.456697      -0.000034
        8      H8              -7.193749      -3.389976       0.000017             -3.806768      -1.793898       0.000009
        9      H9              -3.090039      -5.030090       0.000183             -1.635178      -2.661809       0.000097
       10      H10             -5.828121       4.453750       0.000231             -3.084109       2.356823       0.000122
       11      H11              0.763498      -2.973749      -0.000461              0.404026      -1.573640      -0.000244
       12      H12             -1.438452       4.710042      -0.000055             -0.761196       2.492447      -0.000029
       13      C13             -0.373140       0.878456      -0.000329             -0.197457       0.464859      -0.000174
       14      O14              1.884968       1.694483      -0.000637              0.997482       0.896682      -0.000337
       15      B15              4.290619      -0.042627       0.000008              2.270498      -0.022557       0.000004
       16      F16              4.131599      -1.509508      -2.169982              2.186348      -0.798797      -1.148305
       17      F17              4.131472      -1.507217       2.171573              2.186281      -0.797585       1.149147
       18      F18              6.261589       1.620100      -0.000777              3.313490       0.857320      -0.000411

                    ************************************************* 
                    **** InterNuclear Distances / Bohr, Angstrom **** 
                    ************************************************* 

     Atom centers         Bohr        Angstrom
   11 H11       5 C5      2.050704        1.085186
    7 H7        1 C1      2.056552        1.088280
    8 H8        2 C2      2.056767        1.088394
   12 H12       6 C6      2.056808        1.088416
   10 H10       4 C4      2.058186        1.089145
    9 H9        3 C3      2.058319        1.089215
   14 O14      13 C13     2.401031        1.270571
   18 F18      15 B15     2.578639        1.364557
    6 C6        4 C4      2.582104        1.366391
    2 C2        1 C1      2.585117        1.367985
    5 C5        3 C3      2.585380        1.368124
   16 F16      15 B15     2.624096        1.388612
   17 F17      15 B15     2.624129        1.388629
    4 C4        1 C1      2.675380        1.415750
    3 C3        2 C2      2.677006        1.416610
   13 C13       6 C6      2.709703        1.433913
   13 C13       5 C5      2.711970        1.435113
   15 B15      14 O14     2.967273        1.570213
    9 H9        5 C5      3.915759        2.072131
   10 H10       6 C6      3.923434        2.076192
    8 H8        1 C1      3.958442        2.094717
   11 H11       3 C3      3.961427        2.096297
    7 H7        2 C2      3.962282        2.096749
   12 H12       4 C4      3.972423        2.102116
   13 C13      12 H12     3.976926        2.104499
    9 H9        2 C2      3.998601        2.115969
   10 H10       1 C1      4.005899        2.119831
   13 C13      11 H11     4.016395        2.125385
    8 H8        3 C3      4.017352        2.125891
    7 H7        4 C4      4.020818        2.127725
   16 F16      11 H11     4.265551        2.257232
   17 F17      11 H11     4.267516        2.258272
   14 O14       6 C6      4.295320        2.272986
   17 F17      16 F16     4.341556        2.297452
   18 F18      17 F17     4.363097        2.308851
   18 F18      16 F16     4.363113        2.308860
   11 H11       9 H9      4.367870        2.311377
   18 F18      14 O14     4.377253        2.316342
   12 H12      10 H10     4.397145        2.326869
    9 H9        8 H8      4.419323        2.338605
    8 H8        7 H7      4.430989        2.344779
   10 H10       7 H7      4.438392        2.348696
   14 O14       5 C5      4.456479        2.358267
   17 F17      14 O14     4.473943        2.367509
   16 F16      14 O14     4.474256        2.367674
   14 O14      12 H12     4.487618        2.374745
   15 B15      11 H11     4.586072        2.426845
    4 C4        2 C2      4.718058        2.496689
    3 C3        1 C1      4.728170        2.502040
   15 B15      13 C13     4.753845        2.515626
    6 C6        1 C1      4.765385        2.521733
   13 C13       3 C3      4.777602        2.528198
    5 C5        2 C2      4.787150        2.533251
    6 C6        5 C5      4.800087        2.540097
   14 O14      11 H11     4.801050        2.540606
   13 C13       4 C4      4.801382        2.540782
   15 B15       5 C5      5.478325        2.899005
   16 F16       5 C5      5.490486        2.905440
   17 F17       5 C5      5.491185        2.905810
   17 F17      13 C13     5.540769        2.932049
   16 F16      13 C13     5.540978        2.932159
--


++    Isotope specification:
      ----------------------

 Center
 Type   Z    A    mass (Da)
 --------------------------
    1   6   12    12.000000
    2   1    1     1.007825
    3   6   12    12.000000
    4   8   16    15.994915
    5   5   11    11.009305
    6   9   19    18.998403
--


++    Rigid rotor info:
      -----------------


                    Total mass (a) : 174.04638

                    Center of mass 
                          X          Y          Z   
                       0.25194   -0.00052    0.00001

                    Reference system based on center of mass
                    Coordinates and Masses of Atoms, in au and A
                          X          Y          Z        Mass
                      -6.66629    0.49149   -0.00001   12.00000
                      -5.93913   -1.98925    0.00004   12.00000
                      -3.44987   -2.97409    0.00009   12.00000
                      -5.08738    2.65129    0.00004   12.00000
                      -1.15654   -1.78041   -0.00010   12.00000
                      -2.51110    2.82458   -0.00012   12.00000
                      -8.68890    0.86355   -0.00007    1.00783
                      -7.44569   -3.38946    0.00001    1.00783
                      -3.34198   -5.02957    0.00018    1.00783
                      -6.08006    4.45427    0.00022    1.00783
                       0.51156   -2.97323   -0.00047    1.00783
                      -1.69039    4.71056   -0.00006    1.00783
                      -0.62508    0.87897   -0.00033   12.00000
                       1.63303    1.69500   -0.00064   15.99491
                       4.03868   -0.04211    0.00000   11.00931
                       3.87966   -1.50899   -2.16999   18.99840
                       3.87953   -1.50670    2.17157   18.99840
                       6.00965    1.62062   -0.00078   18.99840

                    The Moment of Inertia Tensor / au
                                     X          Y        Z     
                    X             0.1521E+07
                    Y             0.2884E+03 0.6105E+07
                    Z            -0.5484E+01-0.7476E+00 0.6974E+07

                    The Principal Axes and Moments of Inertia (au)
                    Eigenvalues : 0.6974E+07 0.6105E+07 0.1521E+07
                                     X'         Y'       Z'    
                    Eigenvectors:
                    X            -0.1006E-05 0.6291E-04 0.1000E+01
                    Y            -0.8615E-06 0.1000E+01-0.6291E-04
                    Z             0.1000E+01 0.8615E-06 0.1006E-05

                    The Rotational Constants
                            (cm-1)            (GHz)
                              0.016            0.472
                              0.018            0.539
                              0.072            2.163


                    *******************************************
                    *                                         *
                    * R I G I D - R O T O R   A N A L Y S I S *
                    *                                         *
                    *******************************************

                    j(Max):  5

                    Rotor Type: Linear Rotor
                    Asymmetry parameter: -0.921
                    Prolate = -1
                    Oblate  =  1


                    Rotational energies / cm-1

                    E(J= 0,kappa= 0) =        0.000

                    E(J= 1,kappa=-1) =        0.034
                    E(J= 1,kappa= 0) =        0.088
                    E(J= 1,kappa= 1) =        0.090

                    E(J= 2,kappa=-2) =        0.101
                    E(J= 2,kappa=-1) =        0.153
                    E(J= 2,kappa= 0) =        0.160
                    E(J= 2,kappa= 1) =        0.322
                    E(J= 2,kappa= 2) =        0.322

                    E(J= 3,kappa=-3) =        0.202
                    E(J= 3,kappa=-2) =        0.251
                    E(J= 3,kappa=-1) =        0.264
                    E(J= 3,kappa= 0) =        0.423
                    E(J= 3,kappa= 1) =        0.424
                    E(J= 3,kappa= 2) =        0.700
                    E(J= 3,kappa= 3) =        0.700

                    E(J= 4,kappa=-4) =        0.336
                    E(J= 4,kappa=-3) =        0.381
                    E(J= 4,kappa=-2) =        0.403
                    E(J= 4,kappa=-1) =        0.558
                    E(J= 4,kappa= 0) =        0.559
                    E(J= 4,kappa= 1) =        0.835
                    E(J= 4,kappa= 2) =        0.835
                    E(J= 4,kappa= 3) =        1.222
                    E(J= 4,kappa= 4) =        1.222

                    E(J= 5,kappa=-5) =        0.503
                    E(J= 5,kappa=-4) =        0.544
                    E(J= 5,kappa=-3) =        0.577
                    E(J= 5,kappa=-2) =        0.727
                    E(J= 5,kappa=-1) =        0.729
                    E(J= 5,kappa= 0) =        1.004
                    E(J= 5,kappa= 1) =        1.004
                    E(J= 5,kappa= 2) =        1.391
                    E(J= 5,kappa= 3) =        1.391
                    E(J= 5,kappa= 4) =        1.888
                    E(J= 5,kappa= 5) =        1.888
--


++    Primitive basis info:
      ---------------------


                    *****************************************************
                    ******** Primitive Basis Functions (Valence) ********
                    *****************************************************


 Basis set:C.AUG-CC-PVDZ.........                                                          

                  Type         
                   s
           No.      Exponent    Contraction Coefficients
            1  0.666500000D+04   0.000692  -0.000146   0.000000   0.000000
            2  0.100000000D+04   0.005329  -0.001154   0.000000   0.000000
            3  0.228000000D+03   0.027077  -0.005725   0.000000   0.000000
            4  0.647100000D+02   0.101718  -0.023312   0.000000   0.000000
            5  0.210600000D+02   0.274740  -0.063955   0.000000   0.000000
            6  0.749500000D+01   0.448564  -0.149981   0.000000   0.000000
            7  0.279700000D+01   0.285074  -0.127262   0.000000   0.000000
            8  0.521500000D+00   0.015204   0.544529   0.000000   0.000000
            9  0.159600000D+00  -0.003191   0.580496   1.000000   0.000000
           10  0.469000000D-01   0.000000   0.000000   0.000000   1.000000

                  Type         
                   p
           No.      Exponent    Contraction Coefficients
           11  0.943900000D+01   0.038109   0.000000   0.000000
           12  0.200200000D+01   0.209480   0.000000   0.000000
           13  0.545600000D+00   0.508557   0.000000   0.000000
           14  0.151700000D+00   0.468842   1.000000   0.000000
           15  0.404100000D-01   0.000000   0.000000   1.000000

                  Type         
                   d
           No.      Exponent    Contraction Coefficients
           16  0.550000000D+00   1.000000   0.000000
           17  0.151000000D+00   0.000000   1.000000


 Basis set:H.AUG-CC-PVDZ.........                                                          

                  Type         
                   s
           No.      Exponent    Contraction Coefficients
          103  0.130100000D+02   0.019685   0.000000   0.000000
          104  0.196200000D+01   0.137977   0.000000   0.000000
          105  0.444600000D+00   0.478148   0.000000   0.000000
          106  0.122000000D+00   0.501240   1.000000   0.000000
          107  0.297400000D-01   0.000000   0.000000   1.000000

                  Type         
                   p
           No.      Exponent    Contraction Coefficients
          108  0.727000000D+00   1.000000   0.000000
          109  0.141000000D+00   0.000000   1.000000


 Basis set:C.AUG-CC-PVDZ.........                                                          

                  Type         
                   s
           No.      Exponent    Contraction Coefficients
          145  0.666500000D+04   0.000692  -0.000146   0.000000   0.000000
          146  0.100000000D+04   0.005329  -0.001154   0.000000   0.000000
          147  0.228000000D+03   0.027077  -0.005725   0.000000   0.000000
          148  0.647100000D+02   0.101718  -0.023312   0.000000   0.000000
          149  0.210600000D+02   0.274740  -0.063955   0.000000   0.000000
          150  0.749500000D+01   0.448564  -0.149981   0.000000   0.000000
          151  0.279700000D+01   0.285074  -0.127262   0.000000   0.000000
          152  0.521500000D+00   0.015204   0.544529   0.000000   0.000000
          153  0.159600000D+00  -0.003191   0.580496   1.000000   0.000000
          154  0.469000000D-01   0.000000   0.000000   0.000000   1.000000

                  Type         
                   p
           No.      Exponent    Contraction Coefficients
          155  0.943900000D+01   0.038109   0.000000   0.000000
          156  0.200200000D+01   0.209480   0.000000   0.000000
          157  0.545600000D+00   0.508557   0.000000   0.000000
          158  0.151700000D+00   0.468842   1.000000   0.000000
          159  0.404100000D-01   0.000000   0.000000   1.000000

                  Type         
                   d
           No.      Exponent    Contraction Coefficients
          160  0.550000000D+00   1.000000   0.000000
          161  0.151000000D+00   0.000000   1.000000


 Basis set:O.AUG-CC-PVDZ.........                                                          

                  Type         
                   s
           No.      Exponent    Contraction Coefficients
          162  0.117200000D+05   0.000710  -0.000160   0.000000   0.000000
          163  0.175900000D+04   0.005470  -0.001263   0.000000   0.000000
          164  0.400800000D+03   0.027837  -0.006267   0.000000   0.000000
          165  0.113700000D+03   0.104800  -0.025716   0.000000   0.000000
          166  0.370300000D+02   0.283062  -0.070924   0.000000   0.000000
          167  0.132700000D+02   0.448719  -0.165411   0.000000   0.000000
          168  0.502500000D+01   0.270952  -0.116955   0.000000   0.000000
          169  0.101300000D+01   0.015458   0.557368   0.000000   0.000000
          170  0.302300000D+00  -0.002585   0.572759   1.000000   0.000000
          171  0.789600000D-01   0.000000   0.000000   0.000000   1.000000

                  Type         
                   p
           No.      Exponent    Contraction Coefficients
          172  0.177000000D+02   0.043018   0.000000   0.000000
          173  0.385400000D+01   0.228913   0.000000   0.000000
          174  0.104600000D+01   0.508728   0.000000   0.000000
          175  0.275300000D+00   0.460531   1.000000   0.000000
          176  0.685600000D-01   0.000000   0.000000   1.000000

                  Type         
                   d
           No.      Exponent    Contraction Coefficients
          177  0.118500000D+01   1.000000   0.000000
          178  0.332000000D+00   0.000000   1.000000


 Basis set:B.AUG-CC-PVDZ.........                                                          

                  Type         
                   s
           No.      Exponent    Contraction Coefficients
          179  0.457000000D+04   0.000696  -0.000139   0.000000   0.000000
          180  0.685900000D+03   0.005353  -0.001097   0.000000   0.000000
          181  0.156500000D+03   0.027134  -0.005444   0.000000   0.000000
          182  0.444700000D+02   0.101380  -0.021916   0.000000   0.000000
          183  0.144800000D+02   0.272055  -0.059751   0.000000   0.000000
          184  0.513100000D+01   0.448403  -0.138732   0.000000   0.000000
          185  0.189800000D+01   0.290123  -0.131482   0.000000   0.000000
          186  0.332900000D+00   0.014322   0.539526   0.000000   0.000000
          187  0.104300000D+00  -0.003486   0.580774   1.000000   0.000000
          188  0.310500000D-01   0.000000   0.000000   0.000000   1.000000

                  Type         
                   p
           No.      Exponent    Contraction Coefficients
          189  0.600100000D+01   0.035481   0.000000   0.000000
          190  0.124100000D+01   0.198072   0.000000   0.000000
          191  0.336400000D+00   0.505230   0.000000   0.000000
          192  0.953800000D-01   0.479499   1.000000   0.000000
          193  0.237800000D-01   0.000000   0.000000   1.000000

                  Type         
                   d
           No.      Exponent    Contraction Coefficients
          194  0.343000000D+00   1.000000   0.000000
          195  0.904000000D-01   0.000000   1.000000


 Basis set:F.AUG-CC-PVDZ.........                                                          

                  Type         
                   s
           No.      Exponent    Contraction Coefficients
          196  0.147100000D+05   0.000721  -0.000165   0.000000   0.000000
          197  0.220700000D+04   0.005553  -0.001308   0.000000   0.000000
          198  0.502800000D+03   0.028267  -0.006495   0.000000   0.000000
          199  0.142600000D+03   0.106444  -0.026691   0.000000   0.000000
          200  0.464700000D+02   0.286814  -0.073690   0.000000   0.000000
          201  0.167000000D+02   0.448641  -0.170776   0.000000   0.000000
          202  0.635600000D+01   0.264761  -0.112327   0.000000   0.000000
          203  0.131600000D+01   0.015333   0.562814   0.000000   0.000000
          204  0.389700000D+00  -0.002332   0.568778   1.000000   0.000000
          205  0.986300000D-01   0.000000   0.000000   0.000000   1.000000

                  Type         
                   p
           No.      Exponent    Contraction Coefficients
          206  0.226700000D+02   0.044878   0.000000   0.000000
          207  0.497700000D+01   0.235718   0.000000   0.000000
          208  0.134700000D+01   0.508521   0.000000   0.000000
          209  0.347100000D+00   0.458120   1.000000   0.000000
          210  0.850200000D-01   0.000000   0.000000   1.000000

                  Type         
                   d
           No.      Exponent    Contraction Coefficients
          211  0.164000000D+01   1.000000   0.000000
          212  0.464000000D+00   0.000000   1.000000

  Number of primitives                                  486
  Number of basis functions                             330

--


++    SO/AO info:
      -----------

                    **************************************************
                    ********** Petite list Basis Functions ***********
                    **************************************************


           Basis functions generated by E  

 Basis Label        Type   Center
    1  C1            1s       1
    2  C1            2s       1
    3  C1            *s       1
    4  C1            *s       1
    5  C1            2px      1
    6  C1            *px      1
    7  C1            *px      1
    8  C1            2py      1
    9  C1            *py      1
   10  C1            *py      1
   11  C1            2pz      1
   12  C1            *pz      1
   13  C1            *pz      1
   14  C1            *d2-     1
   15  C1            *d2-     1
   16  C1            *d1-     1
   17  C1            *d1-     1
   18  C1            *d0      1
   19  C1            *d0      1
   20  C1            *d1+     1
   21  C1            *d1+     1
   22  C1            *d2+     1
   23  C1            *d2+     1
   24  C2            1s       2
   25  C2            2s       2
   26  C2            *s       2
   27  C2            *s       2
   28  C2            2px      2
   29  C2            *px      2
   30  C2            *px      2
   31  C2            2py      2
   32  C2            *py      2
   33  C2            *py      2
   34  C2            2pz      2
   35  C2            *pz      2
   36  C2            *pz      2
   37  C2            *d2-     2
   38  C2            *d2-     2
   39  C2            *d1-     2
   40  C2            *d1-     2
   41  C2            *d0      2
   42  C2            *d0      2
   43  C2            *d1+     2
   44  C2            *d1+     2
   45  C2            *d2+     2
   46  C2            *d2+     2
   47  C3            1s       3
   48  C3            2s       3
   49  C3            *s       3
   50  C3            *s       3
   51  C3            2px      3
   52  C3            *px      3
   53  C3            *px      3
   54  C3            2py      3
   55  C3            *py      3
   56  C3            *py      3
   57  C3            2pz      3
   58  C3            *pz      3
   59  C3            *pz      3
   60  C3            *d2-     3
   61  C3            *d2-     3
   62  C3            *d1-     3
   63  C3            *d1-     3
   64  C3            *d0      3
   65  C3            *d0      3
   66  C3            *d1+     3
   67  C3            *d1+     3
   68  C3            *d2+     3
   69  C3            *d2+     3
   70  C4            1s       4
   71  C4            2s       4
   72  C4            *s       4
   73  C4            *s       4
   74  C4            2px      4
   75  C4            *px      4
   76  C4            *px      4
   77  C4            2py      4
   78  C4            *py      4
   79  C4            *py      4
   80  C4            2pz      4
   81  C4            *pz      4
   82  C4            *pz      4
   83  C4            *d2-     4
   84  C4            *d2-     4
   85  C4            *d1-     4
   86  C4            *d1-     4
   87  C4            *d0      4
   88  C4            *d0      4
   89  C4            *d1+     4
   90  C4            *d1+     4
   91  C4            *d2+     4
   92  C4            *d2+     4
   93  C5            1s       5
   94  C5            2s       5
   95  C5            *s       5
   96  C5            *s       5
   97  C5            2px      5
   98  C5            *px      5
   99  C5            *px      5
  100  C5            2py      5
  101  C5            *py      5
  102  C5            *py      5
  103  C5            2pz      5
  104  C5            *pz      5
  105  C5            *pz      5
  106  C5            *d2-     5
  107  C5            *d2-     5
  108  C5            *d1-     5
  109  C5            *d1-     5
  110  C5            *d0      5
  111  C5            *d0      5
  112  C5            *d1+     5
  113  C5            *d1+     5
  114  C5            *d2+     5
  115  C5            *d2+     5
  116  C6            1s       6
  117  C6            2s       6
  118  C6            *s       6
  119  C6            *s       6
  120  C6            2px      6
  121  C6            *px      6
  122  C6            *px      6
  123  C6            2py      6
  124  C6            *py      6
  125  C6            *py      6
  126  C6            2pz      6
  127  C6            *pz      6
  128  C6            *pz      6
  129  C6            *d2-     6
  130  C6            *d2-     6
  131  C6            *d1-     6
  132  C6            *d1-     6
  133  C6            *d0      6
  134  C6            *d0      6
  135  C6            *d1+     6
  136  C6            *d1+     6
  137  C6            *d2+     6
  138  C6            *d2+     6
  139  H7            1s       7
  140  H7            *s       7
  141  H7            *s       7
  142  H7            *px      7
  143  H7            *px      7
  144  H7            *py      7
  145  H7            *py      7
  146  H7            *pz      7
  147  H7            *pz      7
  148  H8            1s       8
  149  H8            *s       8
  150  H8            *s       8
  151  H8            *px      8
  152  H8            *px      8
  153  H8            *py      8
  154  H8            *py      8
  155  H8            *pz      8
  156  H8            *pz      8
  157  H9            1s       9
  158  H9            *s       9
  159  H9            *s       9
  160  H9            *px      9
  161  H9            *px      9
  162  H9            *py      9
  163  H9            *py      9
  164  H9            *pz      9
  165  H9            *pz      9
  166  H10           1s      10
  167  H10           *s      10
  168  H10           *s      10
  169  H10           *px     10
  170  H10           *px     10
  171  H10           *py     10
  172  H10           *py     10
  173  H10           *pz     10
  174  H10           *pz     10
  175  H11           1s      11
  176  H11           *s      11
  177  H11           *s      11
  178  H11           *px     11
  179  H11           *px     11
  180  H11           *py     11
  181  H11           *py     11
  182  H11           *pz     11
  183  H11           *pz     11
  184  H12           1s      12
  185  H12           *s      12
  186  H12           *s      12
  187  H12           *px     12
  188  H12           *px     12
  189  H12           *py     12
  190  H12           *py     12
  191  H12           *pz     12
  192  H12           *pz     12
  193  C13           1s      13
  194  C13           2s      13
  195  C13           *s      13
  196  C13           *s      13
  197  C13           2px     13
  198  C13           *px     13
  199  C13           *px     13
  200  C13           2py     13
  201  C13           *py     13
  202  C13           *py     13
  203  C13           2pz     13
  204  C13           *pz     13
  205  C13           *pz     13
  206  C13           *d2-    13
  207  C13           *d2-    13
  208  C13           *d1-    13
  209  C13           *d1-    13
  210  C13           *d0     13
  211  C13           *d0     13
  212  C13           *d1+    13
  213  C13           *d1+    13
  214  C13           *d2+    13
  215  C13           *d2+    13
  216  O14           1s      14
  217  O14           2s      14
  218  O14           *s      14
  219  O14           *s      14
  220  O14           2px     14
  221  O14           *px     14
  222  O14           *px     14
  223  O14           2py     14
  224  O14           *py     14
  225  O14           *py     14
  226  O14           2pz     14
  227  O14           *pz     14
  228  O14           *pz     14
  229  O14           *d2-    14
  230  O14           *d2-    14
  231  O14           *d1-    14
  232  O14           *d1-    14
  233  O14           *d0     14
  234  O14           *d0     14
  235  O14           *d1+    14
  236  O14           *d1+    14
  237  O14           *d2+    14
  238  O14           *d2+    14
  239  B15           1s      15
  240  B15           2s      15
  241  B15           *s      15
  242  B15           *s      15
  243  B15           2px     15
  244  B15           *px     15
  245  B15           *px     15
  246  B15           2py     15
  247  B15           *py     15
  248  B15           *py     15
  249  B15           2pz     15
  250  B15           *pz     15
  251  B15           *pz     15
  252  B15           *d2-    15
  253  B15           *d2-    15
  254  B15           *d1-    15
  255  B15           *d1-    15
  256  B15           *d0     15
  257  B15           *d0     15
  258  B15           *d1+    15
  259  B15           *d1+    15
  260  B15           *d2+    15
  261  B15           *d2+    15
  262  F16           1s      16
  263  F16           2s      16
  264  F16           *s      16
  265  F16           *s      16
  266  F16           2px     16
  267  F16           *px     16
  268  F16           *px     16
  269  F16           2py     16
  270  F16           *py     16
  271  F16           *py     16
  272  F16           2pz     16
  273  F16           *pz     16
  274  F16           *pz     16
  275  F16           *d2-    16
  276  F16           *d2-    16
  277  F16           *d1-    16
  278  F16           *d1-    16
  279  F16           *d0     16
  280  F16           *d0     16
  281  F16           *d1+    16
  282  F16           *d1+    16
  283  F16           *d2+    16
  284  F16           *d2+    16
  285  F17           1s      17
  286  F17           2s      17
  287  F17           *s      17
  288  F17           *s      17
  289  F17           2px     17
  290  F17           *px     17
  291  F17           *px     17
  292  F17           2py     17
  293  F17           *py     17
  294  F17           *py     17
  295  F17           2pz     17
  296  F17           *pz     17
  297  F17           *pz     17
  298  F17           *d2-    17
  299  F17           *d2-    17
  300  F17           *d1-    17
  301  F17           *d1-    17
  302  F17           *d0     17
  303  F17           *d0     17
  304  F17           *d1+    17
  305  F17           *d1+    17
  306  F17           *d2+    17
  307  F17           *d2+    17
  308  F18           1s      18
  309  F18           2s      18
  310  F18           *s      18
  311  F18           *s      18
  312  F18           2px     18
  313  F18           *px     18
  314  F18           *px     18
  315  F18           2py     18
  316  F18           *py     18
  317  F18           *py     18
  318  F18           2pz     18
  319  F18           *pz     18
  320  F18           *pz     18
  321  F18           *d2-    18
  322  F18           *d2-    18
  323  F18           *d1-    18
  324  F18           *d1-    18
  325  F18           *d0     18
  326  F18           *d0     18
  327  F18           *d1+    18
  328  F18           *d1+    18
  329  F18           *d2+    18
  330  F18           *d2+    18

      Basis set specifications :
      Symmetry species        a  
      Basis functions         330
--


            Nuclear Potential Energy            680.17213133 au

--- Stop Module: gateway at Sun Nov 26 16:25:06 2023 /rc=_RC_ALL_IS_WELL_ ---
*** files: bf3-tropone.RICDLib xmldump
    saved to directory /scratch/albano.b/tropone/cas/aug-cc-pvdz/8-6-1
--- Module gateway spent 2 seconds ---

--- Start Module: seward at Sun Nov 26 16:25:06 2023 ---

()()()()()()()()()()()()()()()()()()()()()()()()()()()()()()()()()()()()()()()()()()()()()()()()()()

                                              &SEWARD

                                   only a single process is used
                       available to each process: 2.9 GB of memory, 1 thread
                                             pid: 36429
()()()()()()()()()()()()()()()()()()()()()()()()()()()()()()()()()()()()()()()()()()()()()()()()()()


  Weights used for alignment and distance                     
  mat. size =    18x    1
       12.0000000000000000
       12.0000000000000000
       12.0000000000000000
       12.0000000000000000
       12.0000000000000000
       12.0000000000000000
        1.0078250322300000
        1.0078250322300000
        1.0078250322300000
        1.0078250322300000
        1.0078250322300000
        1.0078250322300000
       12.0000000000000000
       15.9949146195700003
       11.0093053600000026
       18.9984031627299998
       18.9984031627299998
       18.9984031627299998

               SEWARD will generate:
                  Multipole Moment integrals up to order  2
                  Kinetic Energy integrals
                  Nuclear Attraction integrals (point charge)
                  One-Electron Hamiltonian integrals
                  Velocity integrals
                  Orbital angular momentum around ( 0.2519 -0.0005  0.0000 )
                  Velocity quadrupole around ( 0.2519 -0.0005  0.0000 )
                  RI decomposed two-electron repulsion integrals stored Cholesky style
                   - acCD auxiliary basis
                   - CD Threshold:   0.10E-03

                   Integrals are discarded if absolute value <: 0.10E-13
                   Integral cutoff threshold is set to       <: 0.10E-15

++    SO/AO info:
      -----------

                    **************************************************
                    ********** Petite list Basis Functions ***********
                    **************************************************


           Basis functions generated by E  

 Basis Label        Type   Center
    1  C1            1s       1
    2  C1            2s       1
    3  C1            *s       1
    4  C1            *s       1
    5  C1            2px      1
    6  C1            *px      1
    7  C1            *px      1
    8  C1            2py      1
    9  C1            *py      1
   10  C1            *py      1
   11  C1            2pz      1
   12  C1            *pz      1
   13  C1            *pz      1
   14  C1            *d2-     1
   15  C1            *d2-     1
   16  C1            *d1-     1
   17  C1            *d1-     1
   18  C1            *d0      1
   19  C1            *d0      1
   20  C1            *d1+     1
   21  C1            *d1+     1
   22  C1            *d2+     1
   23  C1            *d2+     1
   24  C2            1s       2
   25  C2            2s       2
   26  C2            *s       2
   27  C2            *s       2
   28  C2            2px      2
   29  C2            *px      2
   30  C2            *px      2
   31  C2            2py      2
   32  C2            *py      2
   33  C2            *py      2
   34  C2            2pz      2
   35  C2            *pz      2
   36  C2            *pz      2
   37  C2            *d2-     2
   38  C2            *d2-     2
   39  C2            *d1-     2
   40  C2            *d1-     2
   41  C2            *d0      2
   42  C2            *d0      2
   43  C2            *d1+     2
   44  C2            *d1+     2
   45  C2            *d2+     2
   46  C2            *d2+     2
   47  C3            1s       3
   48  C3            2s       3
   49  C3            *s       3
   50  C3            *s       3
   51  C3            2px      3
   52  C3            *px      3
   53  C3            *px      3
   54  C3            2py      3
   55  C3            *py      3
   56  C3            *py      3
   57  C3            2pz      3
   58  C3            *pz      3
   59  C3            *pz      3
   60  C3            *d2-     3
   61  C3            *d2-     3
   62  C3            *d1-     3
   63  C3            *d1-     3
   64  C3            *d0      3
   65  C3            *d0      3
   66  C3            *d1+     3
   67  C3            *d1+     3
   68  C3            *d2+     3
   69  C3            *d2+     3
   70  C4            1s       4
   71  C4            2s       4
   72  C4            *s       4
   73  C4            *s       4
   74  C4            2px      4
   75  C4            *px      4
   76  C4            *px      4
   77  C4            2py      4
   78  C4            *py      4
   79  C4            *py      4
   80  C4            2pz      4
   81  C4            *pz      4
   82  C4            *pz      4
   83  C4            *d2-     4
   84  C4            *d2-     4
   85  C4            *d1-     4
   86  C4            *d1-     4
   87  C4            *d0      4
   88  C4            *d0      4
   89  C4            *d1+     4
   90  C4            *d1+     4
   91  C4            *d2+     4
   92  C4            *d2+     4
   93  C5            1s       5
   94  C5            2s       5
   95  C5            *s       5
   96  C5            *s       5
   97  C5            2px      5
   98  C5            *px      5
   99  C5            *px      5
  100  C5            2py      5
  101  C5            *py      5
  102  C5            *py      5
  103  C5            2pz      5
  104  C5            *pz      5
  105  C5            *pz      5
  106  C5            *d2-     5
  107  C5            *d2-     5
  108  C5            *d1-     5
  109  C5            *d1-     5
  110  C5            *d0      5
  111  C5            *d0      5
  112  C5            *d1+     5
  113  C5            *d1+     5
  114  C5            *d2+     5
  115  C5            *d2+     5
  116  C6            1s       6
  117  C6            2s       6
  118  C6            *s       6
  119  C6            *s       6
  120  C6            2px      6
  121  C6            *px      6
  122  C6            *px      6
  123  C6            2py      6
  124  C6            *py      6
  125  C6            *py      6
  126  C6            2pz      6
  127  C6            *pz      6
  128  C6            *pz      6
  129  C6            *d2-     6
  130  C6            *d2-     6
  131  C6            *d1-     6
  132  C6            *d1-     6
  133  C6            *d0      6
  134  C6            *d0      6
  135  C6            *d1+     6
  136  C6            *d1+     6
  137  C6            *d2+     6
  138  C6            *d2+     6
  139  H7            1s       7
  140  H7            *s       7
  141  H7            *s       7
  142  H7            *px      7
  143  H7            *px      7
  144  H7            *py      7
  145  H7            *py      7
  146  H7            *pz      7
  147  H7            *pz      7
  148  H8            1s       8
  149  H8            *s       8
  150  H8            *s       8
  151  H8            *px      8
  152  H8            *px      8
  153  H8            *py      8
  154  H8            *py      8
  155  H8            *pz      8
  156  H8            *pz      8
  157  H9            1s       9
  158  H9            *s       9
  159  H9            *s       9
  160  H9            *px      9
  161  H9            *px      9
  162  H9            *py      9
  163  H9            *py      9
  164  H9            *pz      9
  165  H9            *pz      9
  166  H10           1s      10
  167  H10           *s      10
  168  H10           *s      10
  169  H10           *px     10
  170  H10           *px     10
  171  H10           *py     10
  172  H10           *py     10
  173  H10           *pz     10
  174  H10           *pz     10
  175  H11           1s      11
  176  H11           *s      11
  177  H11           *s      11
  178  H11           *px     11
  179  H11           *px     11
  180  H11           *py     11
  181  H11           *py     11
  182  H11           *pz     11
  183  H11           *pz     11
  184  H12           1s      12
  185  H12           *s      12
  186  H12           *s      12
  187  H12           *px     12
  188  H12           *px     12
  189  H12           *py     12
  190  H12           *py     12
  191  H12           *pz     12
  192  H12           *pz     12
  193  C13           1s      13
  194  C13           2s      13
  195  C13           *s      13
  196  C13           *s      13
  197  C13           2px     13
  198  C13           *px     13
  199  C13           *px     13
  200  C13           2py     13
  201  C13           *py     13
  202  C13           *py     13
  203  C13           2pz     13
  204  C13           *pz     13
  205  C13           *pz     13
  206  C13           *d2-    13
  207  C13           *d2-    13
  208  C13           *d1-    13
  209  C13           *d1-    13
  210  C13           *d0     13
  211  C13           *d0     13
  212  C13           *d1+    13
  213  C13           *d1+    13
  214  C13           *d2+    13
  215  C13           *d2+    13
  216  O14           1s      14
  217  O14           2s      14
  218  O14           *s      14
  219  O14           *s      14
  220  O14           2px     14
  221  O14           *px     14
  222  O14           *px     14
  223  O14           2py     14
  224  O14           *py     14
  225  O14           *py     14
  226  O14           2pz     14
  227  O14           *pz     14
  228  O14           *pz     14
  229  O14           *d2-    14
  230  O14           *d2-    14
  231  O14           *d1-    14
  232  O14           *d1-    14
  233  O14           *d0     14
  234  O14           *d0     14
  235  O14           *d1+    14
  236  O14           *d1+    14
  237  O14           *d2+    14
  238  O14           *d2+    14
  239  B15           1s      15
  240  B15           2s      15
  241  B15           *s      15
  242  B15           *s      15
  243  B15           2px     15
  244  B15           *px     15
  245  B15           *px     15
  246  B15           2py     15
  247  B15           *py     15
  248  B15           *py     15
  249  B15           2pz     15
  250  B15           *pz     15
  251  B15           *pz     15
  252  B15           *d2-    15
  253  B15           *d2-    15
  254  B15           *d1-    15
  255  B15           *d1-    15
  256  B15           *d0     15
  257  B15           *d0     15
  258  B15           *d1+    15
  259  B15           *d1+    15
  260  B15           *d2+    15
  261  B15           *d2+    15
  262  F16           1s      16
  263  F16           2s      16
  264  F16           *s      16
  265  F16           *s      16
  266  F16           2px     16
  267  F16           *px     16
  268  F16           *px     16
  269  F16           2py     16
  270  F16           *py     16
  271  F16           *py     16
  272  F16           2pz     16
  273  F16           *pz     16
  274  F16           *pz     16
  275  F16           *d2-    16
  276  F16           *d2-    16
  277  F16           *d1-    16
  278  F16           *d1-    16
  279  F16           *d0     16
  280  F16           *d0     16
  281  F16           *d1+    16
  282  F16           *d1+    16
  283  F16           *d2+    16
  284  F16           *d2+    16
  285  F17           1s      17
  286  F17           2s      17
  287  F17           *s      17
  288  F17           *s      17
  289  F17           2px     17
  290  F17           *px     17
  291  F17           *px     17
  292  F17           2py     17
  293  F17           *py     17
  294  F17           *py     17
  295  F17           2pz     17
  296  F17           *pz     17
  297  F17           *pz     17
  298  F17           *d2-    17
  299  F17           *d2-    17
  300  F17           *d1-    17
  301  F17           *d1-    17
  302  F17           *d0     17
  303  F17           *d0     17
  304  F17           *d1+    17
  305  F17           *d1+    17
  306  F17           *d2+    17
  307  F17           *d2+    17
  308  F18           1s      18
  309  F18           2s      18
  310  F18           *s      18
  311  F18           *s      18
  312  F18           2px     18
  313  F18           *px     18
  314  F18           *px     18
  315  F18           2py     18
  316  F18           *py     18
  317  F18           *py     18
  318  F18           2pz     18
  319  F18           *pz     18
  320  F18           *pz     18
  321  F18           *d2-    18
  322  F18           *d2-    18
  323  F18           *d1-    18
  324  F18           *d1-    18
  325  F18           *d0     18
  326  F18           *d0     18
  327  F18           *d1+    18
  328  F18           *d1+    18
  329  F18           *d2+    18
  330  F18           *d2+    18

      Basis set specifications :
      Symmetry species        a  
      Basis functions         330
--


            Nuclear Potential Energy            680.17213133 au


      Basis set specifications :
      Symmetry species         a  
      Basis functions          330


Seward processing 2-center and 3-center ERIs

 2-center integrals:
      CPU time :    1.43 sec.
      Wall time:    1.67 sec.
 3-center integrals:
      CPU time :   11.69 sec.
      Wall time:   12.03 sec.
 Block-transpose:
      CPU time :    0.15 sec.
      Wall time:    1.34 sec.
 Diagonal vector:
      CPU time :    0.12 sec.
      Wall time:    0.13 sec.
      RI vectors              1691



  Input file to MOLDEN was generated!

++ I/O STATISTICS
 
  I. General I/O information
  - - - - - - - - - - - - - - - - - - - - - - - - - - - - - - - - - - - - - - - - - - -
  Unit  Name          Flsize      Write/Read            MBytes           Write/Read
                      (MBytes)       Calls              In/Out           Time, sec.
  - - - - - - - - - - - - - - - - - - - - - - - - - - - - - - - - - - - - - - - - - - -
   1  RUNFILE          14.90 .    1589/    9669 .     25.8/    100.7 .       0/       0
   2  NQGRID            0.00 .       2/       0 .      0.0/      0.0 .       0/       0
   3  ONEINT           13.44 .      62/     502 .     56.7/     25.4 .       0/       0
   4  AVEC00            0.00 .    1692/    3383 .     32.7/     65.4 .       0/       0
   5  ZMAT00            0.00 .       1/       0 .     21.8/      0.0 .       0/       0
   6  AMAT00           10.91 .       2/       1 .     21.8/     10.9 .       0/       0
   7  QMAT00            0.00 .       1/       1 .     10.9/     10.9 .       0/       0
   8  QVEC00           21.82 .    1691/       1 .     21.8/     21.8 .       0/       0
   9  RVEC00          704.60 .    1176/    1176 .    704.6/    704.6 .       0/       0
  10  CHRED             0.85 .       4/       0 .      0.9/      0.0 .       0/       0
  11  CHVEC1          704.60 .       1/       0 .    704.6/      0.0 .       0/       0
  12  CHORST            0.06 .      12/       0 .      0.1/      0.0 .       0/       0
  13  CHOMAP            0.01 .       1/       0 .      0.0/      0.0 .       0/       0
  14  CHODIAG           0.42 .       1/       0 .      0.4/      0.0 .       0/       0
  - - - - - - - - - - - - - - - - - - - - - - - - - - - - - - - - - - - - - - - - - - -
   *  TOTAL          1471.62 .    6235/   14733 .   1602.1/    939.8 .       0/       0
  - - - - - - - - - - - - - - - - - - - - - - - - - - - - - - - - - - - - - - - - - - -
 
  II. I/O Access Patterns
  - - - - - - - - - - - - - - - - - - - -
  Unit  Name               % of random
                         Write/Read calls
  - - - - - - - - - - - - - - - - - - - -
   1  RUNFILE             28.6/  10.4
   2  NQGRID              50.0/   0.0
   3  ONEINT              95.2/   3.0
   4  AVEC00              99.9/ 100.0
   5  ZMAT00               0.0/   0.0
   6  AMAT00              50.0/ 100.0
   7  QMAT00               0.0/ 100.0
   8  QVEC00               0.0/ 100.0
   9  RVEC00               0.0/   0.1
  10  CHRED                0.0/   0.0
  11  CHVEC1               0.0/   0.0
  12  CHORST               0.0/   0.0
  13  CHOMAP               0.0/   0.0
  14  CHODIAG              0.0/   0.0
  - - - - - - - - - - - - - - - - - - - -
--
--- Stop Module: seward at Sun Nov 26 16:25:24 2023 /rc=_RC_ALL_IS_WELL_ ---
*** files: bf3-tropone.GssOrb bf3-tropone.guessorb.h5 bf3-tropone.guessorb.molden xmldump
    saved to directory /scratch/albano.b/tropone/cas/aug-cc-pvdz/8-6-1
--- Module seward spent 18 seconds ---

*** symbolic link created: INPORB -> bf3-tropone.GssOrb
--- Start Module: rasscf at Sun Nov 26 16:25:25 2023 ---

()()()()()()()()()()()()()()()()()()()()()()()()()()()()()()()()()()()()()()()()()()()()()()()()()()

                                              &RASSCF

                                   only a single process is used
                       available to each process: 2.9 GB of memory, 1 thread
                                             pid: 36449
()()()()()()()()()()()()()()()()()()()()()()()()()()()()()()()()()()()()()()()()()()()()()()()()()()

  Orbital specification was read from input.

      Header of the ONEINT file:
      --------------------------
      
      Integrals generated by seward 4.2.0  , Sun Nov 26 16:25:06 2023


      OrdInt status: non-squared


      Cartesian coordinates in Angstrom:
      -----------------------------------------------------
      No.  Label        X            Y            Z        
      -----------------------------------------------------
       1   C1        -3.39432700   0.25981400  -0.00000400
       2   C2        -3.00953500  -1.05293800   0.00002400
       3   C3        -1.69227100  -1.57409100   0.00005100
       4   C4        -2.55880700   1.40272900   0.00002500
       5   C5        -0.47869600  -0.94242700  -0.00004900
       6   C6        -1.19549700   1.49443300  -0.00006000
       7   H7        -4.46465000   0.45669700  -0.00003400
       8   H8        -3.80676800  -1.79389800   0.00000900
       9   H9        -1.63517800  -2.66180900   0.00009700
      10   H10       -3.08410900   2.35682300   0.00012200
      11   H11        0.40402600  -1.57364000  -0.00024400
      12   H12       -0.76119600   2.49244700  -0.00002900
      13   C13       -0.19745700   0.46485900  -0.00017400
      14   O14        0.99748200   0.89668200  -0.00033700
      15   B15        2.27049800  -0.02255700   0.00000400
      16   F16        2.18634800  -0.79879700  -1.14830500
      17   F17        2.18628100  -0.79758500   1.14914700
      18   F18        3.31349000   0.85732000  -0.00041100
      -----------------------------------------------------
      Nuclear repulsion energy =  680.17213133

++    Wave function specifications:
      -----------------------------

      Number of closed shell electrons          80
      Number of electrons in active shells       8
      Max number of holes in RAS1 space          0
      Max nr of electrons in RAS3 space          0
      Number of inactive orbitals               40
      Number of active orbitals                  6
      Number of secondary orbitals             284
      Spin quantum number                      0.0
      State symmetry                             1
--

++    Orbital specifications:
      -----------------------

      Symmetry species                           1
                                                 a
      Frozen orbitals                            0
      Inactive orbitals                         40
      Active orbitals                            6
      RAS1 orbitals                              0
      RAS2 orbitals                              6
      RAS3 orbitals                              0
      Secondary orbitals                       284
      Deleted orbitals                           0
      Number of basis functions                330
--

++    CI expansion specifications:
      ----------------------------

      Number of CSFs                           105
      Number of determinants                   120
      Number of root(s) required                 6
      Root chosen for geometry opt.              1
      CI roots used                              1     2     3     4     5     6
      weights                                0.167 0.167 0.167 0.167 0.167 0.167
      highest root included in the CI            6
      max. size of the explicit Hamiltonian    105
--

++    Optimization specifications:
      ----------------------------

      RASSCF algorithm: LK RI/DF
      Maximum number of macro iterations       200
      Maximum number of SX iterations          100
      Threshold for RASSCF energy            0.100E-07
      Threshold for max MO rotation          0.100E+00
      Threshold for max BLB element          0.100E-03
      Level shift parameter                  0.500E+00
      Make Quasi-Newton update
--

      The MO-coefficients are taken from the file:
      /scratch/albano.b/tropone/cas/aug-cc-pvdz/8-6-1/bf3-tropone.StrOrb                                                              
      Title: SCF orbitals                                                                  

      Total molecular charge    0.00

      Molecular orbitals exchanged:
        In symmetry  1 :  46  47


      ************************************************************************************************************************
      *                                                                                                                      *
      *                                            Wave function control section                                             *
      *                                                                                                                      *
      ************************************************************************************************************************


                                         RASSCF iterations: Energy and convergence statistics
                                         ----------------------------------------------------

      Iter CI   SX   CI       RASSCF       Energy    max ROT     max BLB   max BLB  Level Ln srch  Step   QN   Walltime
          iter iter root      energy       change     param      element    value   shift minimum  type update hh:mm:ss
 Nr of preliminary CI iterations:   1
        1   1    6    0  -666.49934045    0.00E+00   0.82E-01   41  85 1  0.14E-01*  0.32   0.00    SX    NO    0:00:22
        2   1   16    0  -666.50916690   -0.98E-02* -0.50E-01   44  85 1 -0.12E-01*  0.33   0.00    SX    NO    0:00:12
        3   1    8    0  -666.51384699   -0.47E-02*  0.28E-01   32 243 1 -0.72E-02*  0.32   0.00    SX    NO    0:00:12
        4   1    7    0  -666.51642161   -0.26E-02* -0.28E-01   40  42 1  0.47E-02*  0.32   0.00    SX    NO    0:00:12
        5   1    7    0  -666.51752354   -0.11E-02* -0.71E-01   40  42 1  0.38E-02*  0.32   2.50    QN   YES    0:00:12
        6   1    7    0  -666.51888250   -0.14E-02* -0.36E-01   40  42 1  0.22E-02*  0.32   1.23    QN   YES    0:00:12
        7   1    7    0  -666.51927215   -0.39E-03* -0.68E-01   23  42 1  0.17E-02*  0.33   2.48    QN   YES    0:00:12
        8   1    7    0  -666.51991499   -0.64E-03*  0.39E-01   33  42 1  0.17E-02*  0.33   1.48    QN   YES    0:00:13
        9   1    7    0  -666.52030015   -0.39E-03*  0.37E-01   40  42 1 -0.16E-02*  0.34   1.52    QN   YES    0:00:13
       10   1    6    0  -666.52056824   -0.27E-03*  0.35E-01   40  42 1 -0.15E-02*  0.34   1.56    QN   YES    0:00:13
       11   1    6    0  -666.52074195   -0.17E-03* -0.32E-01   28  42 1  0.80E-03*  0.34   1.46    QN   YES    0:00:12
       12   1    6    0  -666.52084473   -0.10E-03* -0.21E-01   28  42 1  0.68E-03*  0.34   1.35    QN   YES    0:00:12
       13   1    6    0  -666.52089477   -0.50E-04* -0.92E-02   32  46 1  0.41E-03*  0.34   1.28    QN   YES    0:00:13
       14   1    5    0  -666.52090980   -0.15E-04* -0.33E-02   32  46 1  0.26E-03*  0.34   1.22    QN   YES    0:00:13
       15   1    5    0  -666.52091340   -0.36E-05* -0.18E-02   32  44 1  0.14E-03*  0.34   1.26    QN   YES    0:00:13
       16   1    5    0  -666.52091463   -0.12E-05* -0.10E-02   32  44 1  0.85E-04   0.34   1.28    QN   YES    0:00:13
       17   1    5    0  -666.52091505   -0.42E-06* -0.92E-03   44  64 1 -0.44E-04   0.34   1.33    QN   YES    0:00:12
       18   1    4    0  -666.52091518   -0.13E-06*  0.17E-03   44  64 1 -0.27E-04   0.34   1.20    QN   YES    0:00:13
       19   1    4    0  -666.52091521   -0.30E-07* -0.39E-03   41  85 1  0.99E-05   0.34   1.32    QN   YES    0:00:13
       20   1    4    0  -666.52091522   -0.95E-08  -0.14E-03   33  42 1 -0.60E-05   0.34   0.85    QN   YES    0:00:14
      Convergence after 20 iterations
       21   1    4    0  -666.52091522   -0.19E-08  -0.14E-03   26 127 1 -0.37E-05   0.34   0.85    QN   YES    0:00:13

      ************************************************************************************************************************
                                                      Wave function printout:
                       occupation of active orbitals, and spin coupling of open shells (u,d: Spin up or down)
      ************************************************************************************************************************

      Note: transformation to natural orbitals
      has been made, which may change the order of the CSFs.

      printout of CI-coefficients larger than  0.05 for root  1
      energy=    -666.699369
      conf/sym  111111     Coeff  Weight
             1  222200  -0.93990 0.88342
             2  222ud0   0.09096 0.00827
             3  222020   0.08440 0.00712
             4  222u0d   0.22815 0.05205
             6  222002   0.09950 0.00990
            11  22uudd   0.08590 0.00738
            24  u22d20  -0.05040 0.00254
            25  u2220d   0.05316 0.00283
            26  u22dud   0.05010 0.00251
            31  220220   0.07923 0.00628
            34  220202   0.05234 0.00274
            70  u2u2dd   0.05495 0.00302

      printout of CI-coefficients larger than  0.05 for root  2
      energy=    -666.523217
      conf/sym  111111     Coeff  Weight
             2  222ud0   0.85184 0.72564
             3  222020   0.07248 0.00525
             4  222u0d  -0.37409 0.13994
             5  2220ud   0.10687 0.01142
             6  222002  -0.06682 0.00447
             7  22u2d0  -0.08236 0.00678
             8  22ud20  -0.06461 0.00418
             9  22u20d  -0.16866 0.02845
            10  22udud   0.05633 0.00317
            12  22u02d  -0.06770 0.00458
            23  u222d0   0.12784 0.01634
            24  u22d20   0.05570 0.00310
            25  u2220d  -0.05146 0.00265
            26  u22dud   0.07679 0.00590
            27  u22udd  -0.09868 0.00974
            29  u22d02  -0.05925 0.00351
            32  2202ud  -0.05349 0.00286
            35  220ud2  -0.06066 0.00368
            65  022ud2  -0.06510 0.00424

      printout of CI-coefficients larger than  0.05 for root  3
      energy=    -666.492601
      conf/sym  111111     Coeff  Weight
             1  222200   0.16381 0.02683
             2  222ud0   0.30339 0.09204
             3  222020  -0.07571 0.00573
             4  222u0d   0.67701 0.45835
             6  222002  -0.16137 0.02604
             7  22u2d0   0.46860 0.21958
             8  22ud20  -0.09241 0.00854
             9  22u20d  -0.20349 0.04141
            10  22udud  -0.11517 0.01326
            13  22ud02   0.08496 0.00722
            25  u2220d  -0.11097 0.01232
            26  u22dud   0.11054 0.01222
            29  u22d02   0.18401 0.03386
            34  220202  -0.05092 0.00259
            43  u2d220  -0.06108 0.00373
            44  u2d2ud  -0.09721 0.00945
            46  u2d202   0.06456 0.00417
            70  u2u2dd  -0.05127 0.00263

      printout of CI-coefficients larger than  0.05 for root  4
      energy=    -666.487451
      conf/sym  111111     Coeff  Weight
            15  2u22d0  -0.28908 0.08357
            17  2u220d  -0.91792 0.84258
            18  2u2dud  -0.05368 0.00288
            20  2u202d   0.05538 0.00307
            21  2u2d02  -0.13834 0.01914
            37  2ud220   0.05360 0.00287
            38  2ud2ud   0.07773 0.00604
            40  2ud202  -0.05728 0.00328
            41  2udud2   0.05706 0.00326
            58  ud2202  -0.06758 0.00457
            74  uu2d2d   0.05423 0.00294
            76  2u022d   0.08941 0.00799
            86  udu2d2   0.06146 0.00378

      printout of CI-coefficients larger than  0.05 for root  5
      energy=    -666.479025
      conf/sym  111111     Coeff  Weight
            15  2u22d0  -0.89011 0.79230
            16  2u2d20  -0.10146 0.01029
            17  2u220d   0.27603 0.07619
            18  2u2dud  -0.15456 0.02389
            19  2u2udd   0.23105 0.05338
            21  2u2d02   0.08975 0.00806
            39  2udu2d   0.06468 0.00418
            75  uu2dd2  -0.05683 0.00323
            77  2u02d2  -0.09638 0.00929
            85  udu22d   0.06734 0.00453
            98  0u22d2   0.05202 0.00271

      printout of CI-coefficients larger than  0.05 for root  6
      energy=    -666.443828
      conf/sym  111111     Coeff  Weight
             3  222020   0.12455 0.01551
             5  2220ud   0.19257 0.03708
             6  222002  -0.14609 0.02134
             7  22u2d0   0.23897 0.05711
             8  22ud20  -0.18072 0.03266
             9  22u20d   0.58699 0.34455
            10  22udud  -0.09809 0.00962
            12  22u02d  -0.07040 0.00496
            13  22ud02  -0.31608 0.09991
            23  u222d0   0.49988 0.24988
            24  u22d20  -0.05189 0.00269
            25  u2220d  -0.21440 0.04597
            26  u22dud  -0.09154 0.00838
            29  u22d02   0.05510 0.00304
            30  u220d2   0.06511 0.00424
            32  2202ud  -0.06707 0.00450
            35  220ud2  -0.05435 0.00295
            43  u2d220   0.11402 0.01300
            44  u2d2ud  -0.13715 0.01881
            45  u2du2d   0.05057 0.00256
            46  u2d202  -0.09398 0.00883

      Natural orbitals and occupation numbers for root  1
      sym 1:   1.981984   1.999923   1.963347   1.931914   0.057958   0.064874

      Natural orbitals and occupation numbers for root  2
      sym 1:   1.963891   1.999864   1.926371   1.038234   0.972414   0.099227

      Natural orbitals and occupation numbers for root  3
      sym 1:   1.921762   1.999769   1.676474   1.293754   0.334755   0.773485

      Natural orbitals and occupation numbers for root  4
      sym 1:   1.999793   0.999998   1.965574   1.961518   0.062236   1.010880

      Natural orbitals and occupation numbers for root  5
      sym 1:   1.999369   1.000000   1.962830   1.960028   1.010522   0.067252

      Natural orbitals and occupation numbers for root  6
      sym 1:   1.622887   1.999983   1.380258   1.771419   0.518103   0.707350

      ************************************************************************************************************************
      *                                                                                                                      *
      *                                                    Final results                                                     *
      *                                                                                                                      *
      ************************************************************************************************************************


++    Wave function specifications:
      -----------------------------

      Number of closed shell electrons          80
      Number of electrons in active shells       8
      Max number of holes in RAS1 space          0
      Max nr of electrons in RAS3 space          0
      Number of inactive orbitals               40
      Number of active orbitals                  6
      Number of secondary orbitals             284
      Spin quantum number                      0.0
      State symmetry                             1
--

++    Orbital specifications:
      -----------------------

      Symmetry species                           1
                                                 a
      Frozen orbitals                            0
      Inactive orbitals                         40
      Active orbitals                            6
      RAS1 orbitals                              0
      RAS2 orbitals                              6
      RAS3 orbitals                              0
      Secondary orbitals                       284
      Deleted orbitals                           0
      Number of basis functions                330
--

++    CI expansion specifications:
      ----------------------------

      Number of CSFs                           105
      Number of determinants                   120
      Number of root(s) required                 6
      CI roots used                              1     2     3     4     5     6
      weights                                0.167 0.167 0.167 0.167 0.167 0.167
      highest root included in the CI            6
      Root passed to geometry opt.               1
--

++    Final optimization conditions:
      ------------------------------

      Average CI energy                            -666.52091522
      RASSCF energy for state  1                   -666.69936852
      Super-CI energy                                -0.00000000
      RASSCF energy change                           -0.00000000
      Max change in MO coefficients              -0.940E-04
      Max non-diagonal density matrix element    -0.142E-03
      Maximum BLB matrix element                 -0.371E-05
      (orbital pair  26, 127 in symmetry   1)
      Norm of electronic gradient            0.179E+00
--


      Final state energy(ies):
      ------------------------

::    RASSCF root number  1 Total energy:   -666.69936852
::    RASSCF root number  2 Total energy:   -666.52321711
::    RASSCF root number  3 Total energy:   -666.49260147
::    RASSCF root number  4 Total energy:   -666.48745137
::    RASSCF root number  5 Total energy:   -666.47902486
::    RASSCF root number  6 Total energy:   -666.44382801

++    Molecular orbitals:
      -------------------

      Pseudonatural active orbitals and approximate occupation numbers


      MOLECULAR ORBITALS FOR SYMMETRY SPECIES 1: a  

      INDEX  ENERGY  OCCUPATION COEFFICIENTS ...
          1  -26.2664    2.0000                                                                                                           
               262 F16    1s     ( 0.9942) 285 F17    1s     (-0.1150)
          2  -26.2663    2.0000                                                                                                           
               262 F16    1s     ( 0.1153) 285 F17    1s     ( 0.9942)
          3  -26.2570    2.0000                                                                                                           
               308 F18    1s     ( 1.0008)
          4  -20.6870    2.0000                                                                                                           
               216 O14    1s     ( 1.0017)
          5  -11.3669    2.0000                                                                                                           
               193 C13    1s     ( 1.0039)
          6  -11.3038    2.0000                                                                                                           
                 1 C1     1s     ( 0.1285)  70 C4     1s     ( 0.9454) 116 C6     1s     ( 0.3107)
          7  -11.3018    2.0000                                                                                                           
                24 C2     1s     ( 0.2326)  47 C3     1s     ( 0.9558)  93 C5     1s     ( 0.1607)
          8  -11.3016    2.0000                                                                                                           
[...]

      N-E      0.8056  0.6643  0.4411  0.6154  0.1007  0.0648 -0.4597 -0.4819 -0.4702 -0.4635 -0.6952 -0.5840

                C13     O14     B15     F16     F17     F18   
      1s       2.0081  2.0034  2.0090  2.0017  2.0017  2.0016
      2s       1.3870  1.7766  0.9296  1.8885  1.8885  1.8944
      2px      0.9804  1.4390  0.5255  1.8556  1.8556  1.7467
      2pz      0.9744  1.8184  0.5680  1.7336  1.7333  1.8760
      2py      1.1278  1.0293  0.5640  1.8018  1.8020  1.7869
      *s      -0.4299  0.6022 -1.1075  0.1620  0.1620  0.2242
      *px     -0.5149 -0.0134 -0.2715  0.1032  0.1032  0.0410
      *pz     -0.0592  0.1327 -0.3186  0.0307  0.0306  0.0698
      *py     -0.4683  0.0652 -0.3658  0.0573  0.0574  0.0691
      *d2+    -0.2899 -0.0005  0.0546  0.0016  0.0016  0.0017
      *d1+     0.0070  0.0183  0.0368  0.0027  0.0027  0.0031
      *d0      0.0151  0.0015  0.0935  0.0029  0.0029  0.0012
      *d1-     0.0496 -0.0010  0.1004  0.0043  0.0043 -0.0000
      *d2-    -0.0554  0.0169  0.0883 -0.0006 -0.0006  0.0043
      Total    4.7319  8.8888  2.9064  9.6453  9.6453  9.7198

      N-E      1.2681 -0.8888  2.0936 -0.6453 -0.6453 -0.7198

      Total electronic charge=   88.000000

      Total            charge=   -0.000000

      Mulliken Bond Order analysis
      ----------------------------
      Only bonds with order larger than 0.500 are printed

        Atom A        Atom B        Bond Order
        C1            C2              1.375
        C1            C4              1.530
        C2            C3              1.560
        C3            C5              1.749
        C4            C6              1.779
        C5            H9              0.550
        C5            H11             0.553
        C5            C13             1.149
        C6            C13             1.315

--



      Expectation values of various properties for root number:  5
      -----------------------------------------------------------


++    Molecular properties:
      ---------------------



       0-th cartesian moments: origin at (  0.00000000,  0.00000000,  0.00000000)
      ----------------------------------------------------------------------------
 Total electronic           -88.00000000
 Total nuclear               88.00000000
 Total                       -0.00000000


       1-st cartesian moments: origin at (  0.00000000,  0.00000000,  0.00000000)
      ----------------------------------------------------------------------------
 Component                             X               Y               Z
 Total electronic            -2.18721371      0.58515596     -0.00048297
 Total nuclear                0.00000378      0.00001323      0.00000378
 Total                       -2.18720993      0.58516919     -0.00047919
      ----------------------------------------------------------------------------
      Total                  -5.55933313      1.48735173     -0.00121797   Debye


       2-nd cartesian moments: origin at (  0.25193793, -0.00051547,  0.00000563)
      ----------------------------------------------------------------------------
 Component                            XX              XY              XZ              YY              YZ              ZZ
 Total electronic         -1687.33469007      0.71798209     -0.00129632   -412.03330429     -0.00032366   -140.99283727
 Total nuclear             1634.22351264     -0.01149624      0.00014049    367.91979321      0.00009429     84.82097294
 Total                      -53.11117743      0.70648585     -0.00115583    -44.11351108     -0.00022937    -56.17186434



      Cartesian  2-pole moment: origin at (  0.25193793, -0.00051547,  0.00000563)
      ----------------------------------------------------------------------------
 Component                            XX              XY              XZ              YY              YZ              ZZ
 Total electronic         -1410.82161928      1.07697313     -0.00194448    502.13045938     -0.00048549    908.69115990
 Total nuclear             1407.85312956     -0.01724436      0.00021073   -491.60244957      0.00014143   -916.25067999
 Total                       -2.96848972      1.05972877     -0.00173375     10.52800981     -0.00034406     -7.55952008

--

      Von Neumann Entropy (Root  6) =  1.80410


      Mulliken population analysis for root number:  6
      -----------------------------------------------


++    Molecular charges:
      ------------------

      Mulliken charges per centre and basis function type
      ---------------------------------------------------

                C1      C2      C3      C4      C5      C6      H7      H8      H9      H10     H11     H12   
      1s       2.0075  2.0076  2.0077  2.0076  2.0076  2.0076  1.2976  1.2973  1.2934  1.2946  1.2656  1.2916
      2s       1.4405  1.4404  1.4392  1.4397  1.4400  1.4424  0.0000  0.0000  0.0000  0.0000  0.0000  0.0000
      2px      1.2034  1.1727  1.1504  1.1715  1.2238  1.1662  0.0000  0.0000  0.0000  0.0000  0.0000  0.0000
      2pz      0.8947  0.8871  0.8747  0.8758  0.8410  0.8691  0.0000  0.0000  0.0000  0.0000  0.0000  0.0000
      2py      1.1541  1.1859  1.2147  1.1930  1.1460  1.1844  0.0000  0.0000  0.0000  0.0000  0.0000  0.0000
      *s      -0.5391 -0.5415 -0.7496 -0.7301 -0.3323 -0.6464  0.1533  0.1728  0.1604  0.1571  0.3900  0.2957
      *px     -0.3230 -0.3438  0.1625 -0.0648 -0.0539 -0.0226  0.0187  0.0023 -0.0154 -0.0151  0.0503 -0.0228
      *pz      0.0165  0.0066  0.0343  0.0095 -0.0477 -0.0002  0.0125  0.0126  0.0118  0.0122 -0.0010  0.0054
      *py     -0.5750 -0.4406 -0.4163 -0.4220 -0.4341 -0.2211 -0.0219 -0.0035  0.0269  0.0183 -0.0159  0.0161
      *d2+    -0.0832 -0.0471 -0.1617 -0.0443  0.0047 -0.0343  0.0000  0.0000  0.0000  0.0000  0.0000  0.0000
      *d1+     0.0028  0.0111  0.0238  0.0262  0.0235  0.0492  0.0000  0.0000  0.0000  0.0000  0.0000  0.0000
      *d0      0.0099  0.0100  0.0105  0.0117  0.0106  0.0095  0.0000  0.0000  0.0000  0.0000  0.0000  0.0000
      *d1-     0.0253  0.0174  0.0059  0.0069  0.0000 -0.0030  0.0000  0.0000  0.0000  0.0000  0.0000  0.0000
      *d2-    -0.0805 -0.1013 -0.0209 -0.1149 -0.0833 -0.0751  0.0000  0.0000  0.0000  0.0000  0.0000  0.0000
      Total    5.1539  5.2643  5.5752  5.3658  5.7460  5.7256  1.4602  1.4815  1.4771  1.4671  1.6891  1.5861

      N-E      0.8461  0.7357  0.4248  0.6342  0.2540  0.2744 -0.4602 -0.4815 -0.4771 -0.4671 -0.6891 -0.5861

                C13     O14     B15     F16     F17     F18   
      1s       2.0081  2.0034  2.0090  2.0017  2.0017  2.0016
      2s       1.3873  1.7915  0.9367  1.8885  1.8885  1.8944
      2px      0.9808  1.4531  0.5489  1.8641  1.8641  1.7473
      2pz      0.9827  1.4424  0.5666  1.7357  1.7355  1.8754
      2py      1.1499  1.7371  0.5640  1.8057  1.8059  1.7869
      *s      -0.4056  0.6112 -1.1117  0.1661  0.1662  0.2246
      *px     -0.5197 -0.0108 -0.2703  0.1042  0.1042  0.0411
      *pz     -0.0694  0.1101 -0.3176  0.0314  0.0313  0.0697
      *py     -0.4373  0.1355 -0.3663  0.0574  0.0575  0.0690
      *d2+    -0.3270 -0.0033  0.0672  0.0016  0.0016  0.0018
      *d1+    -0.0030  0.0204  0.0346  0.0026  0.0026  0.0031
      *d0      0.0156  0.0018  0.0931  0.0029  0.0029  0.0011
      *d1-     0.0295 -0.0002  0.1009  0.0041  0.0041 -0.0000
      *d2-    -0.0920  0.0154  0.0947 -0.0008 -0.0008  0.0043
      Total    4.7001  9.3075  2.9499  9.6653  9.6653  9.7203

      N-E      1.2999 -1.3075  2.0501 -0.6653 -0.6653 -0.7203

      Total electronic charge=   88.000000

      Total            charge=   -0.000000

      Mulliken Bond Order analysis
      ----------------------------
      Only bonds with order larger than 0.500 are printed

        Atom A        Atom B        Bond Order
        C1            C2              1.574
        C1            C4              1.137
        C2            C3              1.207
        C3            C5              1.781
        C4            C6              1.819
        C5            H9              0.550
        C5            H11             0.554
        C5            C13             0.999
        C6            C13             1.167

--



      Expectation values of various properties for root number:  6
      -----------------------------------------------------------


++    Molecular properties:
      ---------------------



       0-th cartesian moments: origin at (  0.00000000,  0.00000000,  0.00000000)
      ----------------------------------------------------------------------------
 Total electronic           -88.00000000
 Total nuclear               88.00000000
 Total                       -0.00000000


       1-st cartesian moments: origin at (  0.00000000,  0.00000000,  0.00000000)
      ----------------------------------------------------------------------------
 Component                             X               Y               Z
 Total electronic            -4.40670901     -0.04216440     -0.00026357
 Total nuclear                0.00000378      0.00001323      0.00000378
 Total                       -4.40670523     -0.04215117     -0.00025979
      ----------------------------------------------------------------------------
      Total                 -11.20072747     -0.10713759     -0.00066031   Debye


       2-nd cartesian moments: origin at (  0.25193793, -0.00051547,  0.00000563)
      ----------------------------------------------------------------------------
 Component                            XX              XY              XZ              YY              YZ              ZZ
 Total electronic         -1683.44371102     -0.89907201     -0.00073450   -412.22989551      0.00007371   -139.58414452
 Total nuclear             1634.22351264     -0.01149624      0.00014049    367.91979321      0.00009429     84.82097294
 Total                      -49.22019838     -0.91056825     -0.00059401    -44.31010230      0.00016800    -54.76317158



      Cartesian  2-pole moment: origin at (  0.25193793, -0.00051547,  0.00000563)
      ----------------------------------------------------------------------------
 Component                            XX              XY              XZ              YY              YZ              ZZ
 Total electronic         -1407.53669100     -1.34860802     -0.00110175    499.28403226      0.00011057    908.25265875
 Total nuclear             1407.85312956     -0.01724436      0.00021073   -491.60244957      0.00014143   -916.25067999
 Total                        0.31643856     -1.36585238     -0.00089102      7.68158269      0.00025200     -7.99802124

--


  Input file to MOLDEN was generated!


  Input file to MOLDEN was generated!


  Input file to MOLDEN was generated!


  Input file to MOLDEN was generated!


  Input file to MOLDEN was generated!


  Input file to MOLDEN was generated!


  Input file to MOLDEN was generated!

      Average orbitals are written to the RASORB file
      Natural orbitals for root   1 are written to the RASORB.1 file
      Natural orbitals for root   2 are written to the RASORB.2 file
      Natural orbitals for root   3 are written to the RASORB.3 file
      Natural orbitals for root   4 are written to the RASORB.4 file
      Natural orbitals for root   5 are written to the RASORB.5 file
      Natural orbitals for root   6 are written to the RASORB.6 file
      Spin density orbitals for root   1 are written to the SPDORB.1 file
      Spin density orbitals for root   2 are written to the SPDORB.2 file
      Spin density orbitals for root   3 are written to the SPDORB.3 file
      Spin density orbitals for root   4 are written to the SPDORB.4 file
      Spin density orbitals for root   5 are written to the SPDORB.5 file
      Spin density orbitals for root   6 are written to the SPDORB.6 file


  Timings
  -------

  - - - - - - - - - - - - - - - - - - - - - - - - - - - - - - - - - -
                                                    time    fraction
  - - - - - - - - - - - - - - - - - - - - - - - - - - - - - - - - - -
  1) Input section                         :        0.48        0.00
     - Input processing                    :        0.48        0.00
     - Create GUGA tables                  :        0.00        0.00
     - Create determinant tables           :        0.00        0.00
  2) Wave function optimization            :      296.53        0.92
     - transformation section              :      280.20        0.87
       . AO=>MO integral transformation    :        0.00        0.00
       . Fock-matrix generation            :        0.00        0.00
     - CI optimization                     :        2.70        0.01
       . construct Hdiag                   :        0.00        0.00
       . construct Hsel                    :        0.13        0.00
       . Davidson diagonalization          :        0.00        0.00
         .. sigma vector generation        :        0.00        0.00
            |-> aa/bb 1-electron           :        0.00        0.00
            |-> aa/bb 2-electron           :        0.00        0.00
            \-> alpha-beta                 :        0.00        0.00
                |-> C prefetch             :        0.00        0.00
                |-> matrix multiply        :        0.00        0.00
                \-> S scatter              :        0.00        0.00
         .. HCSCE                          :        0.00        0.00
         .. page_in/page_out               :        0.00        0.00
       . density matrix generation         :        0.49        0.00
            |-> aa/bb 1-electron           :        0.00        0.00
            |-> aa/bb 2-electron           :        0.02        0.00
            \-> alpha-beta                 :        0.02        0.00
     - orbital optimization                :       13.26        0.04
  3) Output section                        :       24.92        0.08
     - Create/update the file RELAX        :       13.63        0.04
     - Create/update the file RUNFILE      :        0.00        0.00
     - Create/update the file JOBIPH       :       11.29        0.04

  - - - - - - - - - - - - - - - - - - - - - - - - - - - - - - - - - -
     Total                                 :      321.93        0.00
  - - - - - - - - - - - - - - - - - - - - - - - - - - - - - - - - - -

++ I/O STATISTICS
 
  I. General I/O information
  - - - - - - - - - - - - - - - - - - - - - - - - - - - - - - - - - - - - - - - - - - -
  Unit  Name          Flsize      Write/Read            MBytes           Write/Read
                      (MBytes)       Calls              In/Out           Time, sec.
  - - - - - - - - - - - - - - - - - - - - - - - - - - - - - - - - - - - - - - - - - - -
   1  RUNFILE          17.40 .    3220/   31610 .     47.8/    323.6 .       0/       0
   2  ONEINT            0.00 .       0/    9813 .      0.0/    636.1 .       0/       0
   3  TRAINT            0.00 .      24/      21 .      7.6/      6.7 .       0/       0
   4  TEMP01            0.00 .       0/       0 .      0.0/      0.0 .       0/       0
   5  TEMP02            0.00 .      92/     288 .      9.4/     29.3 .       0/       0
   6  JOBIPH            0.00 .     844/     281 .     48.6/     22.8 .       0/       0
   7  CHRED             0.85 .       0/      52 .      0.0/     11.1 .       0/       0
   8  CHVEC1          704.60 .       0/    1632 .      0.0/  16910.5 .       0/       3
   9  CHORST            0.06 .       0/      12 .      0.0/      0.1 .       0/       0
  10  CHOMAP            0.01 .       0/       0 .      0.0/      0.0 .       0/       0
  11  CIDIA             0.01 .     244/     244 .      0.0/      0.0 .       0/       0
  12  LUCVECT           0.01 .    1152/    1152 .      0.1/      0.1 .       0/       0
  13  HCFILE            0.00 .    1152/     876 .      0.1/      0.1 .       0/       0
  14  LUSC1             0.00 .    2208/    3576 .      0.3/      0.5 .       0/       0
  15  LUSC2             0.00 .     984/    1440 .      0.1/      0.2 .       0/       0
  16  LUSC3             0.00 .     648/     648 .      0.1/      0.1 .       0/       0
  17  LUSC34            0.00 .       0/       0 .      0.0/      0.0 .       0/       0
  18  LUSC35            0.00 .       0/       0 .      0.0/      0.0 .       0/       0
  19  LUSC36            0.00 .       0/       0 .      0.0/      0.0 .       0/       0
  20  LUSC37            0.00 .       0/       0 .      0.0/      0.0 .       0/       0
  21  LUSC38            0.00 .       0/       0 .      0.0/      0.0 .       0/       0
  22  LUSC39            0.00 .       0/       0 .      0.0/      0.0 .       0/       0
  23  LUSC40            0.00 .       0/       0 .      0.0/      0.0 .       0/       0
  24  LUMOUT            0.00 .       0/       0 .      0.0/      0.0 .       0/       0
  25  CHODIAG           0.42 .       0/      24 .      0.0/     10.0 .       0/       0
  - - - - - - - - - - - - - - - - - - - - - - - - - - - - - - - - - - - - - - - - - - -
   *  TOTAL           723.37 .   10568/   51669 .    114.2/  17951.2 .       0/       3
  - - - - - - - - - - - - - - - - - - - - - - - - - - - - - - - - - - - - - - - - - - -
 
  II. I/O Access Patterns
  - - - - - - - - - - - - - - - - - - - -
  Unit  Name               % of random
                         Write/Read calls
  - - - - - - - - - - - - - - - - - - - -
   1  RUNFILE             28.6/  11.3
   2  ONEINT               0.0/   5.1
   3  TRAINT              95.8/ 100.0
   4  TEMP01               0.0/   0.0
   5  TEMP02              98.9/ 100.0
   6  JOBIPH              97.4/ 100.0
   7  CHRED                0.0/  46.2
   8  CHVEC1               0.0/   1.4
   9  CHORST               0.0/   0.0
  10  CHOMAP               0.0/   0.0
  11  CIDIA                9.4/   9.8
  12  LUCVECT             12.0/  12.1
  13  HCFILE              12.4/  16.4
  14  LUSC1               11.6/  13.4
  15  LUSC2               11.5/  12.5
  16  LUSC3               11.0/  11.1
  17  LUSC34               0.0/   0.0
  18  LUSC35               0.0/   0.0
  19  LUSC36               0.0/   0.0
  20  LUSC37               0.0/   0.0
  21  LUSC38               0.0/   0.0
  22  LUSC39               0.0/   0.0
  23  LUSC40               0.0/   0.0
  24  LUMOUT               0.0/   0.0
  25  CHODIAG              0.0/   0.0
  - - - - - - - - - - - - - - - - - - - -
--
 ###############################################################################
 ###############################################################################
 ###                                                                         ###
 ###                                                                         ###
 ###    WARNING: RunFile label BirthCertificate                              ###
 ###    was used       46 times                                              ###
 ###                                                                         ###
 ###                                                                         ###
 ###############################################################################
 ###############################################################################
--- Stop Module: rasscf at Sun Nov 26 16:30:47 2023 /rc=_RC_ALL_IS_WELL_ ---
*** files: bf3-tropone.rasscf.molden bf3-tropone.rasscf.molden.1 bf3-tropone.rasscf.molden.2 bf3-tropone.rasscf.molden.3 bf3-tropone.rasscf.molden.4 bf3-tropone.rasscf.molden.5
           bf3-tropone.rasscf.molden.6 bf3-tropone.RasOrb bf3-tropone.RasOrb.1 bf3-tropone.RasOrb.2 bf3-tropone.RasOrb.3 bf3-tropone.RasOrb.4 bf3-tropone.RasOrb.5
           bf3-tropone.RasOrb.6 bf3-tropone.rasscf.h5 bf3-tropone.SpdOrb.1 bf3-tropone.SpdOrb.2 bf3-tropone.SpdOrb.3 bf3-tropone.SpdOrb.4 bf3-tropone.SpdOrb.5 bf3-tropone.SpdOrb.6
           xmldump
    saved to directory /scratch/albano.b/tropone/cas/aug-cc-pvdz/8-6-1
--- Module rasscf spent 5 minutes 21 seconds ---

.##################.
.# Happy landing! #.
.##################.

    Timing: Wall=343.71 User=328.50 System=5.25
