ci-homoE                                                                
SP        CASSCF                                                      4-21G               
Number of atoms                            I               30
Info1-9                                    I   N=           9
          39          39           0           0           0         110
           1           1           2
Full Title                                 C   N=           1
ci-homoE    
Route                                      C   N=           5
#p cas(8,8)/4-21g scf=(maxcycle=500) formcheck Guess=read   
Charge                                     I                0
Multiplicity                               I                1
Number of electrons                        I              126
Number of alpha electrons                  I               63
Number of beta electrons                   I               63
Number of basis functions                  I              186
Number of independent functions            I              186
Number of point charges in /Mol/           I                0
Number of translation vectors              I                0
Atomic numbers                             I   N=          30
           6           6           1           6           6           1
           6           6           6           6           8           6
           6           6           1           6           6           1
           1           6           8           8           6           1
           1           1           1           1           1           1
Nuclear charges                            R   N=          30
  6.00000000E+00  6.00000000E+00  1.00000000E+00  6.00000000E+00  6.00000000E+00
  1.00000000E+00  6.00000000E+00  6.00000000E+00  6.00000000E+00  6.00000000E+00
  8.00000000E+00  6.00000000E+00  6.00000000E+00  6.00000000E+00  1.00000000E+00
  6.00000000E+00  6.00000000E+00  1.00000000E+00  1.00000000E+00  6.00000000E+00
  8.00000000E+00  8.00000000E+00  6.00000000E+00  1.00000000E+00  1.00000000E+00
  1.00000000E+00  1.00000000E+00  1.00000000E+00  1.00000000E+00  1.00000000E+00
Current cartesian coordinates              R   N=          90
 -2.79968048E+00  4.49422280E+00 -7.74887083E-01 -5.11697493E-01  3.99050220E+00
 -2.21082094E+00  8.48388195E-02  5.44477751E+00 -3.51987042E+00  1.01159441E+00
  1.93973370E+00 -1.89470834E+00  3.63901743E+00  1.90124039E+00 -2.76217219E+00
  4.22074295E+00  3.37438396E+00 -4.05358126E+00  5.37135607E+00  2.72710008E-01
 -1.82489593E+00  4.64128177E+00 -1.78560952E+00  4.36066818E-02  4.67806920E+00
 -9.29649778E-01  2.78683185E+00  1.90170311E+00 -2.49592354E+00 -5.45740597E-01
  1.23012862E+00 -4.53944463E+00 -1.15774614E+00  1.22868119E-01 -2.32889191E-01
 -2.33509893E-01  3.50853267E-01  7.96512278E-01  2.44605793E+00  2.63831977E+00
  1.64372423E-01  3.87168517E+00  2.73459752E+00  7.96389980E-01  5.81280191E+00
 -1.34448460E+00  2.54338460E+00  3.28450538E+00 -3.17740228E+00  3.84264270E+00
  1.70230733E+00 -4.85848372E+00  4.55789080E+00  2.62205495E+00 -1.22910978E+00
  3.14204599E+00  5.23746615E+00 -2.49559896E+00 -1.23323655E+00 -9.73570567E-01
 -3.31805822E+00 -1.12453015E+00 -3.04739657E+00 -3.62075333E+00 -2.36611670E+00
  9.29030628E-01 -5.89916522E+00 -3.67893056E+00  3.73878455E-01 -6.49985622E+00
 -4.51017572E+00  2.14851524E+00 -7.31635422E+00 -2.37195831E+00 -3.30531798E-01
 -5.54292588E+00 -5.13559113E+00 -1.02644908E+00  6.39052020E+00 -1.21587997E+00
  3.86260680E+00  5.80626343E+00 -3.45681637E+00 -2.16608055E-01  7.32868904E+00
  4.05813097E-01 -2.39287404E+00 -4.21166337E+00  5.67536031E+00 -1.66603735E+00
Number of symbols in /Mol/                 I                0
Force Field                                I                0
Atom Types                                 C   N=          30
                                                            
                                                            
                                                            
                                                            
                                                            
                                                            
Int Atom Types                             I   N=          30
           0           0           0           0           0           0
           0           0           0           0           0           0
           0           0           0           0           0           0
           0           0           0           0           0           0
           0           0           0           0           0           0
MM charges                                 R   N=          30
  0.00000000E+00  0.00000000E+00  0.00000000E+00  0.00000000E+00  0.00000000E+00
  0.00000000E+00  0.00000000E+00  0.00000000E+00  0.00000000E+00  0.00000000E+00
  0.00000000E+00  0.00000000E+00  0.00000000E+00  0.00000000E+00  0.00000000E+00
  0.00000000E+00  0.00000000E+00  0.00000000E+00  0.00000000E+00  0.00000000E+00
  0.00000000E+00  0.00000000E+00  0.00000000E+00  0.00000000E+00  0.00000000E+00
  0.00000000E+00  0.00000000E+00  0.00000000E+00  0.00000000E+00  0.00000000E+00
Integer atomic weights                     I   N=          30
          12          12           1          12          12           1
          12          12          12          12          16          12
          12          12           1          12          12           1
           1          12          16          16          12           1
           1           1           1           1           1           1
Real atomic weights                        R   N=          30
  1.20000000E+01  1.20000000E+01  1.00782504E+00  1.20000000E+01  1.20000000E+01
  1.00782504E+00  1.20000000E+01  1.20000000E+01  1.20000000E+01  1.20000000E+01
  1.59949146E+01  1.20000000E+01  1.20000000E+01  1.20000000E+01  1.00782504E+00
  1.20000000E+01  1.20000000E+01  1.00782504E+00  1.00782504E+00  1.20000000E+01
  1.59949146E+01  1.59949146E+01  1.20000000E+01  1.00782504E+00  1.00782504E+00
  1.00782504E+00  1.00782504E+00  1.00782504E+00  1.00782504E+00  1.00782504E+00
Atom fragment info                         I   N=          30
           0           0           0           0           0           0
           0           0           0           0           0           0
           0           0           0           0           0           0
           0           0           0           0           0           0
           0           0           0           0           0           0
Atom residue num                           I   N=          30
           0           0           0           0           0           0
           0           0           0           0           0           0
           0           0           0           0           0           0
           0           0           0           0           0           0
           0           0           0           0           0           0
Nuclear spins                              I   N=          30
           0           0           1           0           0           1
           0           0           0           0           0           0
           0           0           1           0           0           1
           1           0           0           0           0           1
           1           1           1           1           1           1
Nuclear ZEff                               R   N=          30
 -3.60000000E+00 -3.60000000E+00 -1.00000000E+00 -3.60000000E+00 -3.60000000E+00
 -1.00000000E+00 -3.60000000E+00 -3.60000000E+00 -3.60000000E+00 -3.60000000E+00
 -5.60000000E+00 -3.60000000E+00 -3.60000000E+00 -3.60000000E+00 -1.00000000E+00
 -3.60000000E+00 -3.60000000E+00 -1.00000000E+00 -1.00000000E+00 -3.60000000E+00
 -5.60000000E+00 -5.60000000E+00 -3.60000000E+00 -1.00000000E+00 -1.00000000E+00
 -1.00000000E+00 -1.00000000E+00 -1.00000000E+00 -1.00000000E+00 -1.00000000E+00
Nuclear ZNuc                               R   N=          30
  6.00000000E+00  6.00000000E+00  1.00000000E+00  6.00000000E+00  6.00000000E+00
  1.00000000E+00  6.00000000E+00  6.00000000E+00  6.00000000E+00  6.00000000E+00
  8.00000000E+00  6.00000000E+00  6.00000000E+00  6.00000000E+00  1.00000000E+00
  6.00000000E+00  6.00000000E+00  1.00000000E+00  1.00000000E+00  6.00000000E+00
  8.00000000E+00  8.00000000E+00  6.00000000E+00  1.00000000E+00  1.00000000E+00
  1.00000000E+00  1.00000000E+00  1.00000000E+00  1.00000000E+00  1.00000000E+00
Nuclear QMom                               R   N=          30
  0.00000000E+00  0.00000000E+00  0.00000000E+00  0.00000000E+00  0.00000000E+00
  0.00000000E+00  0.00000000E+00  0.00000000E+00  0.00000000E+00  0.00000000E+00
  0.00000000E+00  0.00000000E+00  0.00000000E+00  0.00000000E+00  0.00000000E+00
  0.00000000E+00  0.00000000E+00  0.00000000E+00  0.00000000E+00  0.00000000E+00
  0.00000000E+00  0.00000000E+00  0.00000000E+00  0.00000000E+00  0.00000000E+00
  0.00000000E+00  0.00000000E+00  0.00000000E+00  0.00000000E+00  0.00000000E+00
Nuclear GFac                               R   N=          30
  0.00000000E+00  0.00000000E+00  2.79284600E+00  0.00000000E+00  0.00000000E+00
  2.79284600E+00  0.00000000E+00  0.00000000E+00  0.00000000E+00  0.00000000E+00
  0.00000000E+00  0.00000000E+00  0.00000000E+00  0.00000000E+00  2.79284600E+00
  0.00000000E+00  0.00000000E+00  2.79284600E+00  2.79284600E+00  0.00000000E+00
  0.00000000E+00  0.00000000E+00  0.00000000E+00  2.79284600E+00  2.79284600E+00
  2.79284600E+00  2.79284600E+00  2.79284600E+00  2.79284600E+00  2.79284600E+00
MicOpt                                     I   N=          30
          -1          -1          -1          -1          -1          -1
          -1          -1          -1          -1          -1          -1
          -1          -1          -1          -1          -1          -1
          -1          -1          -1          -1          -1          -1
          -1          -1          -1          -1          -1          -1
Number of residues                         I                0
Number of secondary structures             I                0
SymInf integers                            I   N=          26
           1           1           1           1           1           0
           0           0           0           0           0           0
           0           0           0           0           0           0
           0           0           0           0           0           0
           0           0
RotTr to input orientation                 R   N=          12
  9.99977538E-01 -6.43398752E-03 -1.87795334E-03  6.39535187E-03  9.99781498E-01
 -1.99011677E-02  2.00558687E-03  1.98887105E-02  9.99800188E-01 -9.30934853E-03
  2.29635610E-02  7.16702290E-03
Number of contracted shells                I               78
Number of primitive shells                 I              162
Pure/Cartesian d shells                    I                1
Pure/Cartesian f shells                    I                0
Highest angular momentum                   I                1
Largest degree of contraction              I                4
Shell types                                I   N=          78
           0          -1          -1           0          -1          -1
           0           0           0          -1          -1           0
          -1          -1           0           0           0          -1
          -1           0          -1          -1           0          -1
          -1           0          -1          -1           0          -1
          -1           0          -1          -1           0          -1
          -1           0          -1          -1           0           0
           0          -1          -1           0          -1          -1
           0           0           0           0           0          -1
          -1           0          -1          -1           0          -1
          -1           0          -1          -1           0           0
           0           0           0           0           0           0
           0           0           0           0           0           0
Number of primitives per shell             I   N=          78
           4           2           1           4           2           1
           2           1           4           2           1           4
           2           1           2           1           4           2
           1           4           2           1           4           2
           1           4           2           1           4           2
           1           4           2           1           4           2
           1           4           2           1           2           1
           4           2           1           4           2           1
           2           1           2           1           4           2
           1           4           2           1           4           2
           1           4           2           1           2           1
           2           1           2           1           2           1
           2           1           2           1           2           1
Shell to atom map                          I   N=          78
           1           1           1           2           2           2
           3           3           4           4           4           5
           5           5           6           6           7           7
           7           8           8           8           9           9
           9          10          10          10          11          11
          11          12          12          12          13          13
          13          14          14          14          15          15
          16          16          16          17          17          17
          18          18          19          19          20          20
          20          21          21          21          22          22
          22          23          23          23          24          24
          25          25          26          26          27          27
          28          28          29          29          30          30
Primitive exponents                        R   N=         162
  5.14836000E+02  7.73470000E+01  1.72534000E+01  4.55754000E+00  3.66498000E+00
  7.70545000E-01  1.95857000E-01  5.14836000E+02  7.73470000E+01  1.72534000E+01
  4.55754000E+00  3.66498000E+00  7.70545000E-01  1.95857000E-01  5.44717800E+00
  8.24547240E-01  1.83191580E-01  5.14836000E+02  7.73470000E+01  1.72534000E+01
  4.55754000E+00  3.66498000E+00  7.70545000E-01  1.95857000E-01  5.14836000E+02
  7.73470000E+01  1.72534000E+01  4.55754000E+00  3.66498000E+00  7.70545000E-01
  1.95857000E-01  5.44717800E+00  8.24547240E-01  1.83191580E-01  5.14836000E+02
  7.73470000E+01  1.72534000E+01  4.55754000E+00  3.66498000E+00  7.70545000E-01
  1.95857000E-01  5.14836000E+02  7.73470000E+01  1.72534000E+01  4.55754000E+00
  3.66498000E+00  7.70545000E-01  1.95857000E-01  5.14836000E+02  7.73470000E+01
  1.72534000E+01  4.55754000E+00  3.66498000E+00  7.70545000E-01  1.95857000E-01
  5.14836000E+02  7.73470000E+01  1.72534000E+01  4.55754000E+00  3.66498000E+00
  7.70545000E-01  1.95857000E-01  9.38318000E+02  1.41662000E+02  3.18308000E+01
  8.51101000E+00  7.40294000E+00  1.57620000E+00  3.73684000E-01  5.14836000E+02
  7.73470000E+01  1.72534000E+01  4.55754000E+00  3.66498000E+00  7.70545000E-01
  1.95857000E-01  5.14836000E+02  7.73470000E+01  1.72534000E+01  4.55754000E+00
  3.66498000E+00  7.70545000E-01  1.95857000E-01  5.14836000E+02  7.73470000E+01
  1.72534000E+01  4.55754000E+00  3.66498000E+00  7.70545000E-01  1.95857000E-01
  5.44717800E+00  8.24547240E-01  1.83191580E-01  5.14836000E+02  7.73470000E+01
  1.72534000E+01  4.55754000E+00  3.66498000E+00  7.70545000E-01  1.95857000E-01
  5.14836000E+02  7.73470000E+01  1.72534000E+01  4.55754000E+00  3.66498000E+00
  7.70545000E-01  1.95857000E-01  5.44717800E+00  8.24547240E-01  1.83191580E-01
  5.44717800E+00  8.24547240E-01  1.83191580E-01  5.14836000E+02  7.73470000E+01
  1.72534000E+01  4.55754000E+00  3.66498000E+00  7.70545000E-01  1.95857000E-01
  9.38318000E+02  1.41662000E+02  3.18308000E+01  8.51101000E+00  7.40294000E+00
  1.57620000E+00  3.73684000E-01  9.38318000E+02  1.41662000E+02  3.18308000E+01
  8.51101000E+00  7.40294000E+00  1.57620000E+00  3.73684000E-01  5.14836000E+02
  7.73470000E+01  1.72534000E+01  4.55754000E+00  3.66498000E+00  7.70545000E-01
  1.95857000E-01  5.44717800E+00  8.24547240E-01  1.83191580E-01  5.44717800E+00
  8.24547240E-01  1.83191580E-01  5.44717800E+00  8.24547240E-01  1.83191580E-01
  5.44717800E+00  8.24547240E-01  1.83191580E-01  5.44717800E+00  8.24547240E-01
  1.83191580E-01  5.44717800E+00  8.24547240E-01  1.83191580E-01  5.44717800E+00
  8.24547240E-01  1.83191580E-01
Contraction coefficients                   R   N=         162
  1.65399004E-02  1.16447003E-01  4.19945010E-01  5.80709014E-01 -3.95895162E-01
  1.21583436E+00  1.00000000E+00  1.65399004E-02  1.16447003E-01  4.19945010E-01
  5.80709014E-01 -3.95895162E-01  1.21583436E+00  1.00000000E+00  1.56284979E-01
  9.04690877E-01  1.00000000E+00  1.65399004E-02  1.16447003E-01  4.19945010E-01
  5.80709014E-01 -3.95895162E-01  1.21583436E+00  1.00000000E+00  1.65399004E-02
  1.16447003E-01  4.19945010E-01  5.80709014E-01 -3.95895162E-01  1.21583436E+00
  1.00000000E+00  1.56284979E-01  9.04690877E-01  1.00000000E+00  1.65399004E-02
  1.16447003E-01  4.19945010E-01  5.80709014E-01 -3.95895162E-01  1.21583436E+00
  1.00000000E+00  1.65399004E-02  1.16447003E-01  4.19945010E-01  5.80709014E-01
 -3.95895162E-01  1.21583436E+00  1.00000000E+00  1.65399004E-02  1.16447003E-01
  4.19945010E-01  5.80709014E-01 -3.95895162E-01  1.21583436E+00  1.00000000E+00
  1.65399004E-02  1.16447003E-01  4.19945010E-01  5.80709014E-01 -3.95895162E-01
  1.21583436E+00  1.00000000E+00  1.62714001E-02  1.14340001E-01  4.16787003E-01
  5.83808004E-01 -4.04453583E-01  1.22156176E+00  1.00000000E+00  1.65399004E-02
  1.16447003E-01  4.19945010E-01  5.80709014E-01 -3.95895162E-01  1.21583436E+00
  1.00000000E+00  1.65399004E-02  1.16447003E-01  4.19945010E-01  5.80709014E-01
 -3.95895162E-01  1.21583436E+00  1.00000000E+00  1.65399004E-02  1.16447003E-01
  4.19945010E-01  5.80709014E-01 -3.95895162E-01  1.21583436E+00  1.00000000E+00
  1.56284979E-01  9.04690877E-01  1.00000000E+00  1.65399004E-02  1.16447003E-01
  4.19945010E-01  5.80709014E-01 -3.95895162E-01  1.21583436E+00  1.00000000E+00
  1.65399004E-02  1.16447003E-01  4.19945010E-01  5.80709014E-01 -3.95895162E-01
  1.21583436E+00  1.00000000E+00  1.56284979E-01  9.04690877E-01  1.00000000E+00
  1.56284979E-01  9.04690877E-01  1.00000000E+00  1.65399004E-02  1.16447003E-01
  4.19945010E-01  5.80709014E-01 -3.95895162E-01  1.21583436E+00  1.00000000E+00
  1.62714001E-02  1.14340001E-01  4.16787003E-01  5.83808004E-01 -4.04453583E-01
  1.22156176E+00  1.00000000E+00  1.62714001E-02  1.14340001E-01  4.16787003E-01
  5.83808004E-01 -4.04453583E-01  1.22156176E+00  1.00000000E+00  1.65399004E-02
  1.16447003E-01  4.19945010E-01  5.80709014E-01 -3.95895162E-01  1.21583436E+00
  1.00000000E+00  1.56284979E-01  9.04690877E-01  1.00000000E+00  1.56284979E-01
  9.04690877E-01  1.00000000E+00  1.56284979E-01  9.04690877E-01  1.00000000E+00
  1.56284979E-01  9.04690877E-01  1.00000000E+00  1.56284979E-01  9.04690877E-01
  1.00000000E+00  1.56284979E-01  9.04690877E-01  1.00000000E+00  1.56284979E-01
  9.04690877E-01  1.00000000E+00
P(S=P) Contraction coefficients            R   N=         162
  0.00000000E+00  0.00000000E+00  0.00000000E+00  0.00000000E+00  2.36459947E-01
  8.60618806E-01  1.00000000E+00  0.00000000E+00  0.00000000E+00  0.00000000E+00
  0.00000000E+00  2.36459947E-01  8.60618806E-01  1.00000000E+00  0.00000000E+00
  0.00000000E+00  0.00000000E+00  0.00000000E+00  0.00000000E+00  0.00000000E+00
  0.00000000E+00  2.36459947E-01  8.60618806E-01  1.00000000E+00  0.00000000E+00
  0.00000000E+00  0.00000000E+00  0.00000000E+00  2.36459947E-01  8.60618806E-01
  1.00000000E+00  0.00000000E+00  0.00000000E+00  0.00000000E+00  0.00000000E+00
  0.00000000E+00  0.00000000E+00  0.00000000E+00  2.36459947E-01  8.60618806E-01
  1.00000000E+00  0.00000000E+00  0.00000000E+00  0.00000000E+00  0.00000000E+00
  2.36459947E-01  8.60618806E-01  1.00000000E+00  0.00000000E+00  0.00000000E+00
  0.00000000E+00  0.00000000E+00  2.36459947E-01  8.60618806E-01  1.00000000E+00
  0.00000000E+00  0.00000000E+00  0.00000000E+00  0.00000000E+00  2.36459947E-01
  8.60618806E-01  1.00000000E+00  0.00000000E+00  0.00000000E+00  0.00000000E+00
  0.00000000E+00  2.44586107E-01  8.53955373E-01  1.00000000E+00  0.00000000E+00
  0.00000000E+00  0.00000000E+00  0.00000000E+00  2.36459947E-01  8.60618806E-01
  1.00000000E+00  0.00000000E+00  0.00000000E+00  0.00000000E+00  0.00000000E+00
  2.36459947E-01  8.60618806E-01  1.00000000E+00  0.00000000E+00  0.00000000E+00
  0.00000000E+00  0.00000000E+00  2.36459947E-01  8.60618806E-01  1.00000000E+00
  0.00000000E+00  0.00000000E+00  0.00000000E+00  0.00000000E+00  0.00000000E+00
  0.00000000E+00  0.00000000E+00  2.36459947E-01  8.60618806E-01  1.00000000E+00
  0.00000000E+00  0.00000000E+00  0.00000000E+00  0.00000000E+00  2.36459947E-01
  8.60618806E-01  1.00000000E+00  0.00000000E+00  0.00000000E+00  0.00000000E+00
  0.00000000E+00  0.00000000E+00  0.00000000E+00  0.00000000E+00  0.00000000E+00
  0.00000000E+00  0.00000000E+00  2.36459947E-01  8.60618806E-01  1.00000000E+00
  0.00000000E+00  0.00000000E+00  0.00000000E+00  0.00000000E+00  2.44586107E-01
  8.53955373E-01  1.00000000E+00  0.00000000E+00  0.00000000E+00  0.00000000E+00
  0.00000000E+00  2.44586107E-01  8.53955373E-01  1.00000000E+00  0.00000000E+00
  0.00000000E+00  0.00000000E+00  0.00000000E+00  2.36459947E-01  8.60618806E-01
  1.00000000E+00  0.00000000E+00  0.00000000E+00  0.00000000E+00  0.00000000E+00
  0.00000000E+00  0.00000000E+00  0.00000000E+00  0.00000000E+00  0.00000000E+00
  0.00000000E+00  0.00000000E+00  0.00000000E+00  0.00000000E+00  0.00000000E+00
  0.00000000E+00  0.00000000E+00  0.00000000E+00  0.00000000E+00  0.00000000E+00
  0.00000000E+00  0.00000000E+00
Coordinates of each shell                  R   N=         234
 -2.79968048E+00  4.49422280E+00 -7.74887083E-01 -2.79968048E+00  4.49422280E+00
 -7.74887083E-01 -2.79968048E+00  4.49422280E+00 -7.74887083E-01 -5.11697493E-01
  3.99050220E+00 -2.21082094E+00 -5.11697493E-01  3.99050220E+00 -2.21082094E+00
 -5.11697493E-01  3.99050220E+00 -2.21082094E+00  8.48388195E-02  5.44477751E+00
 -3.51987042E+00  8.48388195E-02  5.44477751E+00 -3.51987042E+00  1.01159441E+00
  1.93973370E+00 -1.89470834E+00  1.01159441E+00  1.93973370E+00 -1.89470834E+00
  1.01159441E+00  1.93973370E+00 -1.89470834E+00  3.63901743E+00  1.90124039E+00
 -2.76217219E+00  3.63901743E+00  1.90124039E+00 -2.76217219E+00  3.63901743E+00
  1.90124039E+00 -2.76217219E+00  4.22074295E+00  3.37438396E+00 -4.05358126E+00
  4.22074295E+00  3.37438396E+00 -4.05358126E+00  5.37135607E+00  2.72710008E-01
 -1.82489593E+00  5.37135607E+00  2.72710008E-01 -1.82489593E+00  5.37135607E+00
  2.72710008E-01 -1.82489593E+00  4.64128177E+00 -1.78560952E+00  4.36066818E-02
  4.64128177E+00 -1.78560952E+00  4.36066818E-02  4.64128177E+00 -1.78560952E+00
  4.36066818E-02  4.67806920E+00 -9.29649778E-01  2.78683185E+00  4.67806920E+00
 -9.29649778E-01  2.78683185E+00  4.67806920E+00 -9.29649778E-01  2.78683185E+00
  1.90170311E+00 -2.49592354E+00 -5.45740597E-01  1.90170311E+00 -2.49592354E+00
 -5.45740597E-01  1.90170311E+00 -2.49592354E+00 -5.45740597E-01  1.23012862E+00
 -4.53944463E+00 -1.15774614E+00  1.23012862E+00 -4.53944463E+00 -1.15774614E+00
  1.23012862E+00 -4.53944463E+00 -1.15774614E+00  1.22868119E-01 -2.32889191E-01
 -2.33509893E-01  1.22868119E-01 -2.32889191E-01 -2.33509893E-01  1.22868119E-01
 -2.32889191E-01 -2.33509893E-01  3.50853267E-01  7.96512278E-01  2.44605793E+00
  3.50853267E-01  7.96512278E-01  2.44605793E+00  3.50853267E-01  7.96512278E-01
  2.44605793E+00  2.63831977E+00  1.64372423E-01  3.87168517E+00  2.63831977E+00
  1.64372423E-01  3.87168517E+00  2.63831977E+00  1.64372423E-01  3.87168517E+00
  2.73459752E+00  7.96389980E-01  5.81280191E+00  2.73459752E+00  7.96389980E-01
  5.81280191E+00 -1.34448460E+00  2.54338460E+00  3.28450538E+00 -1.34448460E+00
  2.54338460E+00  3.28450538E+00 -1.34448460E+00  2.54338460E+00  3.28450538E+00
 -3.17740228E+00  3.84264270E+00  1.70230733E+00 -3.17740228E+00  3.84264270E+00
  1.70230733E+00 -3.17740228E+00  3.84264270E+00  1.70230733E+00 -4.85848372E+00
  4.55789080E+00  2.62205495E+00 -4.85848372E+00  4.55789080E+00  2.62205495E+00
 -1.22910978E+00  3.14204599E+00  5.23746615E+00 -1.22910978E+00  3.14204599E+00
  5.23746615E+00 -2.49559896E+00 -1.23323655E+00 -9.73570567E-01 -2.49559896E+00
 -1.23323655E+00 -9.73570567E-01 -2.49559896E+00 -1.23323655E+00 -9.73570567E-01
 -3.31805822E+00 -1.12453015E+00 -3.04739657E+00 -3.31805822E+00 -1.12453015E+00
 -3.04739657E+00 -3.31805822E+00 -1.12453015E+00 -3.04739657E+00 -3.62075333E+00
 -2.36611670E+00  9.29030628E-01 -3.62075333E+00 -2.36611670E+00  9.29030628E-01
 -3.62075333E+00 -2.36611670E+00  9.29030628E-01 -5.89916522E+00 -3.67893056E+00
  3.73878455E-01 -5.89916522E+00 -3.67893056E+00  3.73878455E-01 -5.89916522E+00
 -3.67893056E+00  3.73878455E-01 -6.49985622E+00 -4.51017572E+00  2.14851524E+00
 -6.49985622E+00 -4.51017572E+00  2.14851524E+00 -7.31635422E+00 -2.37195831E+00
 -3.30531798E-01 -7.31635422E+00 -2.37195831E+00 -3.30531798E-01 -5.54292588E+00
 -5.13559113E+00 -1.02644908E+00 -5.54292588E+00 -5.13559113E+00 -1.02644908E+00
  6.39052020E+00 -1.21587997E+00  3.86260680E+00  6.39052020E+00 -1.21587997E+00
  3.86260680E+00  5.80626343E+00 -3.45681637E+00 -2.16608055E-01  5.80626343E+00
 -3.45681637E+00 -2.16608055E-01  7.32868904E+00  4.05813097E-01 -2.39287404E+00
  7.32868904E+00  4.05813097E-01 -2.39287404E+00 -4.21166337E+00  5.67536031E+00
 -1.66603735E+00 -4.21166337E+00  5.67536031E+00 -1.66603735E+00
Num ILSW                                   I              100
ILSW                                       I   N=         100
           0           1           0           0           0           0
           0           0           3           0           0          -1
           5           0           0           0           0           0
           0           0           0           3           0           0
           1           0           0           0           0           0
           0           0      100000           0          -1           0
           0           0           0           0           0           0
           0           0           0           1           0           0
           0 -2000000000           1           0           0         808
           0           0           4          52           0           0
           0           0           0           0           0           0
           0           0           0          30           0           1
           0           0           0           0           0           0
           0           0           0           0           0           0
           0           0           0           0           0           0
           0           0           0           0           0           0
           0           0           0           0
Num RLSW                                   I               52
RLSW                                       R   N=          52
  1.00000000E+00  1.00000000E+00  1.00000000E+00  1.00000000E+00  1.00000000E+00
  0.00000000E+00  0.00000000E+00  1.00000000E+00  0.00000000E+00  0.00000000E+00
  0.00000000E+00  0.00000000E+00  1.00000000E+00  0.00000000E+00  0.00000000E+00
  0.00000000E+00  0.00000000E+00  1.00000000E+00  0.00000000E+00  0.00000000E+00
  0.00000000E+00  0.00000000E+00  1.00000000E+00  0.00000000E+00  0.00000000E+00
  0.00000000E+00  0.00000000E+00  1.00000000E+00  0.00000000E+00  0.00000000E+00
  0.00000000E+00  0.00000000E+00  1.00000000E+00  0.00000000E+00  0.00000000E+00
  0.00000000E+00  0.00000000E+00  0.00000000E+00  1.00000000E+00  1.00000000E+00
  0.00000000E+00  1.00000000E+00  0.00000000E+00  0.00000000E+00  0.00000000E+00
  0.00000000E+00  0.00000000E+00  0.00000000E+00  0.00000000E+00  0.00000000E+00
  0.00000000E+00  0.00000000E+00
Number of CAS Electrons                    I                8
Number of CAS Orbitals                     I                8
MxBond                                     I                4
NBond                                      I   N=          30
           3           3           1           3           3           1
           3           4           3           3           1           4
           3           3           1           3           3           1
           1           3           1           2           4           1
           1           1           1           1           1           1
IBond                                      I   N=         120
           2          17          30           0           1           3
           4           0           2           0           0           0
           2           5          12           0           4           6
           7           0           5           0           0           0
           5           8          29           0           7           9
          10          28           8          14          27           0
           8          11          12           0          10           0
           0           0           4          10          13          20
          12          14          16           0           9          13
          15           0          14           0           0           0
          13          17          19           0           1          16
          18           0          17           0           0           0